
     Program PWSCF v.7.5 starts on 11Apr2026 at 12:44:12 

     This program is part of the open-source Quantum ESPRESSO suite
     for quantum simulation of materials; please cite
         "P. Giannozzi et al., J. Phys.:Condens. Matter 21 395502 (2009);
         "P. Giannozzi et al., J. Phys.:Condens. Matter 29 465901 (2017);
         "P. Giannozzi et al., J. Chem. Phys. 152 154105 (2020);
          URL http://www.quantum-espresso.org", 
     in publications or presentations arising from this work. More details at
     http://www.quantum-espresso.org/quote

     Parallel version (MPI), running on     1 processors

     MPI processes distributed on     1 nodes
     2434 MiB available memory on the printing compute node when the environment starts

     Waiting for input...
     Reading input from standard input

     Current dimensions of program PWSCF are:
     Max number of different atomic species (ntypx) = 10
     Max number of k-points (npk) =  40000
     Max angular momentum in pseudopotentials (lmaxx) =  4
     file C.pbe-n-kjpaw_psl.1.0.0.UPF: wavefunction(s)  2S 2P renormalized

     Subspace diagonalization in iterative solution of the eigenvalue problem:
     a serial algorithm will be used


     G-vector sticks info
     --------------------
     sticks:   dense  smooth     PW     G-vecs:    dense   smooth      PW
     Sum         475     241     85                50421    17957    3377

     Using Slab Decomposition



     bravais-lattice index     =            4
     lattice parameter (alat)  =       4.6500  a.u.
     unit-cell volume          =     522.4452 (a.u.)^3
     number of atoms/cell      =            2
     number of atomic types    =            1
     number of electrons       =         8.00
     number of Kohn-Sham states=            8
     kinetic-energy cutoff     =      40.0000  Ry
     charge density cutoff     =     320.0000  Ry
     scf convergence threshold =      1.0E-08
     mixing beta               =       0.7000
     number of iterations used =            8  plain     mixing
     Exchange-correlation= SLA  PW   PBX  PBC
                           (   1   4   3   4   0   0   0)

     celldm(1)=   4.650000  celldm(2)=   0.000000  celldm(3)=   6.000000
     celldm(4)=   0.000000  celldm(5)=   0.000000  celldm(6)=   0.000000

     crystal axes: (cart. coord. in units of alat)
               a(1) = (   1.000000   0.000000   0.000000 )  
               a(2) = (  -0.500000   0.866025   0.000000 )  
               a(3) = (   0.000000   0.000000   6.000000 )  

     reciprocal axes: (cart. coord. in units 2 pi/alat)
               b(1) = (  1.000000  0.577350 -0.000000 )  
               b(2) = (  0.000000  1.154701  0.000000 )  
               b(3) = (  0.000000 -0.000000  0.166667 )  


     PseudoPot. # 1 for C  read from file:
     ./pseudo/C.pbe-n-kjpaw_psl.1.0.0.UPF
     MD5 check sum: 5f16ad9a65e90284d1d834d4ab3b0f7d
     Pseudo is Projector augmented-wave + core cor, Zval =  4.0
     Generated using &quot;atomic&quot; code by A. Dal Corso  v.6.3
     Shape of augmentation charge: PSQ
     Using radial grid of 1073 points,  4 beta functions with: 
                l(1) =   0
                l(2) =   0
                l(3) =   1
                l(4) =   1
     Q(r) pseudized with 0 coefficients 


     atomic species   valence    mass     pseudopotential
     C                 4.00    12.01100     C ( 1.00)

     24 Sym. Ops., with inversion, found (12 have fractional translation)



   Cartesian axes

     site n.     atom                  positions (alat units)
         1        C      tau(   1) = (   0.0000000   0.0000000   0.0000000  )
         2        C      tau(   2) = (  -0.0000005   0.5773506   0.0000000  )

     number of k points=    61  Marzari-Vanderbilt smearing, width (Ry)=  0.0200
                       cart. coord. in units 2pi/alat
        k(    1) = (   0.0000000   0.0000000   0.0000000), wk =   0.0034722
        k(    2) = (   0.0000000   0.0481125   0.0000000), wk =   0.0208333
        k(    3) = (   0.0000000   0.0962250   0.0000000), wk =   0.0208333
        k(    4) = (   0.0000000   0.1443376   0.0000000), wk =   0.0208333
        k(    5) = (   0.0000000   0.1924501   0.0000000), wk =   0.0208333
        k(    6) = (   0.0000000   0.2405626   0.0000000), wk =   0.0208333
        k(    7) = (   0.0000000   0.2886751   0.0000000), wk =   0.0208333
        k(    8) = (   0.0000000   0.3367877   0.0000000), wk =   0.0208333
        k(    9) = (   0.0000000   0.3849002   0.0000000), wk =   0.0208333
        k(   10) = (   0.0000000   0.4330127   0.0000000), wk =   0.0208333
        k(   11) = (   0.0000000   0.4811252   0.0000000), wk =   0.0208333
        k(   12) = (   0.0000000   0.5292377   0.0000000), wk =   0.0208333
        k(   13) = (   0.0000000  -0.5773503   0.0000000), wk =   0.0104167
        k(   14) = (   0.0416667   0.0721688   0.0000000), wk =   0.0208333
        k(   15) = (   0.0416667   0.1202813   0.0000000), wk =   0.0416667
        k(   16) = (   0.0416667   0.1683938   0.0000000), wk =   0.0416667
        k(   17) = (   0.0416667   0.2165064   0.0000000), wk =   0.0416667
        k(   18) = (   0.0416667   0.2646189   0.0000000), wk =   0.0416667
        k(   19) = (   0.0416667   0.3127314   0.0000000), wk =   0.0416667
        k(   20) = (   0.0416667   0.3608439   0.0000000), wk =   0.0416667
        k(   21) = (   0.0416667   0.4089564   0.0000000), wk =   0.0416667
        k(   22) = (   0.0416667   0.4570690   0.0000000), wk =   0.0416667
        k(   23) = (   0.0416667   0.5051815   0.0000000), wk =   0.0416667
        k(   24) = (   0.0416667   0.5532940   0.0000000), wk =   0.0416667
        k(   25) = (   0.0833333   0.1443376   0.0000000), wk =   0.0208333
        k(   26) = (   0.0833333   0.1924501   0.0000000), wk =   0.0416667
        k(   27) = (   0.0833333   0.2405626   0.0000000), wk =   0.0416667
        k(   28) = (   0.0833333   0.2886751   0.0000000), wk =   0.0416667
        k(   29) = (   0.0833333   0.3367877   0.0000000), wk =   0.0416667
        k(   30) = (   0.0833333   0.3849002   0.0000000), wk =   0.0416667
        k(   31) = (   0.0833333   0.4330127   0.0000000), wk =   0.0416667
        k(   32) = (   0.0833333   0.4811252   0.0000000), wk =   0.0416667
        k(   33) = (   0.0833333   0.5292377   0.0000000), wk =   0.0416667
        k(   34) = (   0.0833333   0.5773503   0.0000000), wk =   0.0208333
        k(   35) = (   0.1250000   0.2165064   0.0000000), wk =   0.0208333
        k(   36) = (   0.1250000   0.2646189   0.0000000), wk =   0.0416667
        k(   37) = (   0.1250000   0.3127314   0.0000000), wk =   0.0416667
        k(   38) = (   0.1250000   0.3608439   0.0000000), wk =   0.0416667
        k(   39) = (   0.1250000   0.4089564   0.0000000), wk =   0.0416667
        k(   40) = (   0.1250000   0.4570690   0.0000000), wk =   0.0416667
        k(   41) = (   0.1250000   0.5051815   0.0000000), wk =   0.0416667
        k(   42) = (   0.1250000   0.5532940   0.0000000), wk =   0.0416667
        k(   43) = (   0.1666667   0.2886751   0.0000000), wk =   0.0208333
        k(   44) = (   0.1666667   0.3367877   0.0000000), wk =   0.0416667
        k(   45) = (   0.1666667   0.3849002   0.0000000), wk =   0.0416667
        k(   46) = (   0.1666667   0.4330127   0.0000000), wk =   0.0416667
        k(   47) = (   0.1666667   0.4811252   0.0000000), wk =   0.0416667
        k(   48) = (   0.1666667   0.5292377   0.0000000), wk =   0.0416667
        k(   49) = (   0.1666667   0.5773503   0.0000000), wk =   0.0208333
        k(   50) = (   0.2083333   0.3608439   0.0000000), wk =   0.0208333
        k(   51) = (   0.2083333   0.4089564   0.0000000), wk =   0.0416667
        k(   52) = (   0.2083333   0.4570690   0.0000000), wk =   0.0416667
        k(   53) = (   0.2083333   0.5051815   0.0000000), wk =   0.0416667
        k(   54) = (   0.2083333   0.5532940   0.0000000), wk =   0.0416667
        k(   55) = (   0.2500000   0.4330127   0.0000000), wk =   0.0208333
        k(   56) = (   0.2500000   0.4811252   0.0000000), wk =   0.0416667
        k(   57) = (   0.2500000   0.5292377   0.0000000), wk =   0.0416667
        k(   58) = (   0.2500000   0.5773503   0.0000000), wk =   0.0208333
        k(   59) = (   0.2916667   0.5051815   0.0000000), wk =   0.0208333
        k(   60) = (   0.2916667   0.5532940   0.0000000), wk =   0.0416667
        k(   61) = (   0.3333333   0.5773503   0.0000000), wk =   0.0069444

     Dense  grid:    50421 G-vectors     FFT dimensions: (  27,  27, 160)

     Smooth grid:    17957 G-vectors     FFT dimensions: (  24,  24, 120)

     Estimated max dynamical RAM per process >      81.20 MB

     Check: negative core charge=   -0.000005

     Initial potential from superposition of free atoms

     starting charge       7.9999, renormalised to       8.0000

     negative rho (up, down):  2.474E-05 0.000E+00
     Starting wfcs are    8 randomized atomic wfcs
     Checking if some PAW data can be deallocated... 

     total cpu time spent up to now is        2.3 secs

     Self-consistent Calculation

     iteration #  1     ecut=    40.00 Ry     beta= 0.70
     Davidson diagonalization with overlap
     ethr =  1.00E-02,  avg # of iterations =  5.6

     negative rho (up, down):  8.362E-05 0.000E+00

     total cpu time spent up to now is        7.0 secs

     total energy              =     -36.85672380 Ry
     estimated scf accuracy    <       0.19996364 Ry

     iteration #  2     ecut=    40.00 Ry     beta= 0.70
     Davidson diagonalization with overlap
     ethr =  2.50E-03,  avg # of iterations =  3.5

     negative rho (up, down):  1.113E-04 0.000E+00

     total cpu time spent up to now is        9.2 secs

     total energy              =     -36.88613553 Ry
     estimated scf accuracy    <       0.00223983 Ry

     iteration #  3     ecut=    40.00 Ry     beta= 0.70
     Davidson diagonalization with overlap
     ethr =  2.80E-05,  avg # of iterations =  9.4

     negative rho (up, down):  1.266E-04 0.000E+00

     total cpu time spent up to now is       13.0 secs

     total energy              =     -36.88636334 Ry
     estimated scf accuracy    <       0.00016302 Ry

     iteration #  4     ecut=    40.00 Ry     beta= 0.70
     Davidson diagonalization with overlap
     ethr =  2.04E-06,  avg # of iterations =  3.9

     negative rho (up, down):  1.288E-04 0.000E+00

     total cpu time spent up to now is       15.0 secs

     total energy              =     -36.88637186 Ry
     estimated scf accuracy    <       0.00000099 Ry

     iteration #  5     ecut=    40.00 Ry     beta= 0.70
     Davidson diagonalization with overlap
     ethr =  1.24E-08,  avg # of iterations =  3.1

     negative rho (up, down):  1.292E-04 0.000E+00

     total cpu time spent up to now is       17.0 secs

     total energy              =     -36.88637257 Ry
     estimated scf accuracy    <       0.00000002 Ry

     iteration #  6     ecut=    40.00 Ry     beta= 0.70
     Davidson diagonalization with overlap
     ethr =  2.86E-10,  avg # of iterations =  2.2

     negative rho (up, down):  1.294E-04 0.000E+00

     total cpu time spent up to now is       18.8 secs

     End of self-consistent calculation

          k = 0.0000 0.0000 0.0000 (  2253 PWs)   bands (ev):

   -21.2340  -9.3190  -4.7029  -4.7029   1.4585   2.2973   2.5718   4.6140

          k = 0.0000 0.0481 0.0000 (  2267 PWs)   bands (ev):

   -21.1929  -9.2697  -4.8728  -4.7929   1.5148   2.3540   2.6285   4.6700

          k = 0.0000 0.0962 0.0000 (  2256 PWs)   bands (ev):

   -21.0694  -9.1220  -5.3556  -5.0441   1.6835   2.5238   2.7988   4.8378

          k = 0.0000 0.1443 0.0000 (  2242 PWs)   bands (ev):

   -20.8641  -8.8769  -6.0890  -5.4108   1.9648   2.8067   3.0827   5.1168

          k = 0.0000 0.1925 0.0000 (  2252 PWs)   bands (ev):

   -20.5775  -8.5361  -6.9995  -5.8422   2.3584   3.2020   3.4800   5.5059

          k = 0.0000 0.2406 0.0000 (  2236 PWs)   bands (ev):

   -20.2104  -8.1026  -8.0218  -6.2922   2.8641   3.7083   3.9907   5.9929

          k = 0.0000 0.2887 0.0000 (  2228 PWs)   bands (ev):

   -19.7640  -9.1057  -7.5807  -6.7279   3.4812   4.3175   4.6142   5.6382

          k = 0.0000 0.3368 0.0000 (  2230 PWs)   bands (ev):

   -19.2401 -10.2137  -7.1246  -6.9778   4.2087   4.4206   5.1184   5.3484

          k = 0.0000 0.3849 0.0000 (  2214 PWs)   bands (ev):

   -18.6410 -11.3175  -7.4659  -6.3061   3.2849   5.0429   5.9288   6.0790

          k = 0.0000 0.4330 0.0000 (  2234 PWs)   bands (ev):

   -17.9711 -12.3959  -7.7410  -5.5892   2.1581   5.8840   6.1038   6.8770

          k = 0.0000 0.4811 0.0000 (  2254 PWs)   bands (ev):

   -17.2393 -13.4272  -7.9421  -4.8760   1.1367   5.8762   7.0680   7.9340

          k = 0.0000 0.5292 0.0000 (  2236 PWs)   bands (ev):

   -16.4771 -14.3716  -8.0645  -4.2799   0.3501   5.8186   8.2202   9.0915

          k = 0.0000-0.5774 0.0000 (  2240 PWs)   bands (ev):

   -15.9648 -14.9453  -8.1057  -4.0263   0.0319   5.7983   9.4063   9.5394

          k = 0.0417 0.0722 0.0000 (  2247 PWs)   bands (ev):

   -21.1105  -9.1711  -5.1893  -4.9728   1.6273   2.4672   2.7421   4.7819

          k = 0.0417 0.1203 0.0000 (  2251 PWs)   bands (ev):

   -20.9462  -8.9748  -5.7768  -5.3031   1.8523   2.6936   2.9691   5.0053

          k = 0.0417 0.1684 0.0000 (  2235 PWs)   bands (ev):

   -20.7002  -8.6817  -6.5773  -5.7237   2.1898   3.0327   3.3098   5.3396

          k = 0.0417 0.2165 0.0000 (  2240 PWs)   bands (ev):

   -20.3733  -8.2945  -7.5270  -6.1819   2.6395   3.4838   3.7639   5.7818

          k = 0.0417 0.2646 0.0000 (  2242 PWs)   bands (ev):

   -19.9666  -8.5682  -7.8165  -6.6373   3.2011   4.0440   4.3312   6.0965

          k = 0.0417 0.3127 0.0000 (  2240 PWs)   bands (ev):

   -19.4815  -9.6560  -7.2534  -7.0618   3.8737   4.6601   5.0110   5.0801

          k = 0.0417 0.3608 0.0000 (  2230 PWs)   bands (ev):

   -18.9199 -10.7566  -7.4360  -6.6144   3.8343   4.6558   5.5374   5.7982

          k = 0.0417 0.4090 0.0000 (  2228 PWs)   bands (ev):

   -18.2852 -11.8445  -7.7476  -5.9163   2.6946   5.5399   6.2426   6.4270

          k = 0.0417 0.4571 0.0000 (  2239 PWs)   bands (ev):

   -17.5832 -12.8981  -7.9878  -5.1923   1.6154   6.0933   6.5833   7.4294

          k = 0.0417 0.5052 0.0000 (  2240 PWs)   bands (ev):

   -16.8294 -13.8915  -8.1507  -4.5160   0.6927   6.0295   7.6719   8.5350

          k = 0.0417 0.5533 0.0000 (  2228 PWs)   bands (ev):

   -16.1078 -14.7343  -8.2328  -4.0560   0.1066   5.9899   8.8721   9.7287

          k = 0.0833 0.1443 0.0000 (  2241 PWs)   bands (ev):

   -20.7412  -8.7303  -6.3928  -5.7264   2.1336   2.9763   3.2530   5.2843

          k = 0.0833 0.1925 0.0000 (  2251 PWs)   bands (ev):

   -20.4550  -8.3908  -7.1815  -6.2262   2.5273   3.3714   3.6506   5.6732

          k = 0.0833 0.2406 0.0000 (  2241 PWs)   bands (ev):

   -20.0885  -8.1087  -7.9586  -6.7307   3.0331   3.8778   4.1615   6.1591

          k = 0.0833 0.2887 0.0000 (  2240 PWs)   bands (ev):

   -19.6430  -9.1265  -7.4384  -7.2027   3.6505   4.4875   4.7857   5.4428

          k = 0.0833 0.3368 0.0000 (  2234 PWs)   bands (ev):

   -19.1201 -10.1899  -7.6222  -6.8373   4.3015   4.3784   5.2530   5.5220

          k = 0.0833 0.3849 0.0000 (  2234 PWs)   bands (ev):

   -18.5226 -11.2640  -7.9776  -6.1670   3.1862   5.2149   6.0823   6.3640

          k = 0.0833 0.4330 0.0000 (  2249 PWs)   bands (ev):

   -17.8548 -12.3217  -8.2608  -5.4505   2.0902   6.1502   6.7194   7.0275

          k = 0.0833 0.4811 0.0000 (  2241 PWs)   bands (ev):

   -17.1257 -13.3387  -8.4664  -4.7353   1.0894   6.5904   7.2382   8.0753

          k = 0.0833 0.5292 0.0000 (  2229 PWs)   bands (ev):

   -16.3675 -14.2731  -8.5911  -4.1337   0.3108   6.5386   8.3809   9.2111

          k = 0.0833 0.5774 0.0000 (  2224 PWs)   bands (ev):

   -15.8592 -14.8407  -8.6328  -3.8754  -0.0076   6.5187   9.5541   9.6964

          k = 0.1250 0.2165 0.0000 (  2245 PWs)   bands (ev):

   -20.1291  -8.0061  -7.8969  -6.8240   2.9772   3.8222   4.1050   6.6099

          k = 0.1250 0.2646 0.0000 (  2241 PWs)   bands (ev):

   -19.7239  -8.7372  -7.5313  -7.4093   3.5388   4.3832   4.6729   5.6682

          k = 0.1250 0.3127 0.0000 (  2231 PWs)   bands (ev):

   -19.2406  -9.6851  -7.9220  -6.9718   4.2115   4.6324   5.0721   5.3537

          k = 0.1250 0.3608 0.0000 (  2238 PWs)   bands (ev):

   -18.6818 -10.6957  -8.3492  -6.3364   3.5775   4.9942   5.8453   6.1467

          k = 0.1250 0.4090 0.0000 (  2238 PWs)   bands (ev):

   -18.0506 -11.7252  -8.6910  -5.6409   2.5091   5.8846   6.7322   7.0470

          k = 0.1250 0.4571 0.0000 (  2231 PWs)   bands (ev):

   -17.3535 -12.7403  -8.9481  -4.9160   1.4852   6.8739   7.4792   7.7183

          k = 0.1250 0.5052 0.0000 (  2224 PWs)   bands (ev):

   -16.6063 -13.7077  -9.1199  -4.2321   0.5925   7.3740   8.0032   8.7856

          k = 0.1250 0.5533 0.0000 (  2220 PWs)   bands (ev):

   -15.8936 -14.5327  -9.2060  -3.7581   0.0112   7.3406   9.1845   9.8583

          k = 0.1667 0.2887 0.0000 (  2241 PWs)   bands (ev):

   -19.2809  -9.4421  -8.1015  -7.0168   4.1559   4.7644   4.9989   5.2975

          k = 0.1667 0.3368 0.0000 (  2235 PWs)   bands (ev):

   -18.7616 -10.2601  -8.6992  -6.4218   3.8008   4.8833   5.7222   6.0348

          k = 0.1667 0.3849 0.0000 (  2234 PWs)   bands (ev):

   -18.1688 -11.1765  -9.1628  -5.7574   2.8051   5.7196   6.5492   6.8841

          k = 0.1667 0.4330 0.0000 (  2230 PWs)   bands (ev):

   -17.5074 -12.1386  -9.5045  -5.0436   1.8131   6.6618   7.4704   7.8423

          k = 0.1667 0.4811 0.0000 (  2225 PWs)   bands (ev):

   -16.7871 -13.0964  -9.7406  -4.3230   0.8814   7.7021   8.4485   8.4611

          k = 0.1667 0.5292 0.0000 (  2220 PWs)   bands (ev):

   -16.0405 -13.9934  -9.8800  -3.7014   0.1279   8.3649   8.8668   9.4289

          k = 0.1667 0.5774 0.0000 (  2214 PWs)   bands (ev):

   -15.5426 -14.5426  -9.9261  -3.4250  -0.1935   8.3526   9.9835  10.1596

          k = 0.2083 0.3608 0.0000 (  2241 PWs)   bands (ev):

   -18.2083 -10.9014  -9.4163  -5.7966   2.9134   5.6642   6.4866   6.8283

          k = 0.2083 0.4090 0.0000 (  2231 PWs)   bands (ev):

   -17.5849 -11.6603  -9.9703  -5.1093   2.0022   6.5520   7.3416   7.7331

          k = 0.2083 0.4571 0.0000 (  2222 PWs)   bands (ev):

   -16.8982 -12.5148 -10.3436  -4.3855   1.1001   7.5421   8.2512   8.7466

          k = 0.2083 0.5052 0.0000 (  2210 PWs)   bands (ev):

   -16.1651 -13.3918 -10.5711  -3.6840   0.2739   8.6230   9.0920   9.5361

          k = 0.2083 0.5533 0.0000 (  2213 PWs)   bands (ev):

   -15.4685 -14.1690 -10.6795  -3.1697  -0.3049   9.4656   9.5591   9.8084

          k = 0.2500 0.4330 0.0000 (  2223 PWs)   bands (ev):

   -16.9357 -12.2125 -10.6558  -4.4076   1.1822   7.4873   8.1775   8.6921

          k = 0.2500 0.4811 0.0000 (  2210 PWs)   bands (ev):

   -16.2320 -12.8910 -11.1201  -3.6823   0.3726   8.5166   8.9009   9.7570

          k = 0.2500 0.5292 0.0000 (  2209 PWs)   bands (ev):

   -15.5061 -13.6418 -11.3658  -3.0143  -0.3465   9.2258   9.6151  10.6112

          k = 0.2500 0.5774 0.0000 (  2216 PWs)   bands (ev):

   -15.0163 -14.1476 -11.4413  -2.6803  -0.6979   9.2736  10.5209  10.6302

          k = 0.2917 0.5052 0.0000 (  2187 PWs)   bands (ev):

   -15.5270 -13.3446 -11.7096  -2.9629  -0.3541   9.1019   9.5634  10.8608

          k = 0.2917 0.5533 0.0000 (  2199 PWs)   bands (ev):

   -14.8498 -13.8988 -12.0059  -2.3310  -0.9874   9.0586  10.6046  11.2955

          k = 0.3333 0.5774 0.0000 (  2241 PWs)   bands (ev):

   -14.2822 -14.2822 -12.2723  -1.6514  -1.6513   8.9731  11.2605  11.2607

     the Fermi energy is    -1.6215 ev

!    total energy              =     -36.88637258 Ry
     total all-electron energy =      -152.414567 Ry
     estimated scf accuracy    <          8.2E-10 Ry
     smearing contrib. (-TS)   =      -0.00002935 Ry
     internal energy E=F+TS    =     -36.88634323 Ry

     The total energy is F=E-TS. E is the sum of the following terms:
     one-electron contribution =    -154.30912459 Ry
     hartree contribution      =      78.79231768 Ry
     xc contribution           =      -9.28308713 Ry
     ewald contribution        =      60.24775952 Ry
     one-center paw contrib.   =     -12.33420870 Ry

     convergence has been achieved in   6 iterations

     Writing all to output data dir ./tmp/graphene.save/ :
     XML data file, charge density, pseudopotentials, collected wavefunctions

     init_run     :      2.16s CPU      2.21s WALL (       1 calls)
     electrons    :     15.42s CPU     16.56s WALL (       1 calls)

     Called by init_run:
     wfcinit      :      0.94s CPU      0.93s WALL (       1 calls)
     potinit      :      0.59s CPU      0.63s WALL (       1 calls)
     hinit0       :      0.56s CPU      0.54s WALL (       1 calls)

     Called by electrons:
     c_bands      :     12.86s CPU     14.04s WALL (       6 calls)
     sum_band     :      1.68s CPU      1.66s WALL (       6 calls)
     v_of_rho     :      0.30s CPU      0.33s WALL (       7 calls)
     newd         :      0.22s CPU      0.24s WALL (       7 calls)
     PAW_pot      :      0.45s CPU      0.44s WALL (       7 calls)
     mix_rho      :      0.03s CPU      0.03s WALL (       6 calls)

     Called by c_bands:
     init_us_2    :      0.25s CPU      0.24s WALL (     793 calls)
     cegterg      :     12.54s CPU     13.74s WALL (     366 calls)

     Called by *egterg:
     cdiaghg      :      0.20s CPU      0.20s WALL (    2060 calls)
     h_psi        :     10.17s CPU      9.77s WALL (    2121 calls)
     s_psi        :      0.56s CPU      0.54s WALL (    2121 calls)
     g_psi        :      0.05s CPU      0.05s WALL (    1694 calls)

     Called by h_psi:
     h_psi:calbec :      0.58s CPU      0.56s WALL (    2121 calls)
     vloc_psi     :      8.97s CPU      8.61s WALL (    2121 calls)
                                        0.00s GPU  (    2121 calls)
     add_vuspsi   :      0.57s CPU      0.54s WALL (    2121 calls)

     General routines
     calbec       :      0.73s CPU      0.71s WALL (    2487 calls)
     fft          :      0.53s CPU      0.51s WALL (      89 calls)
     ffts         :      0.46s CPU      0.44s WALL (      13 calls)
     fftw         :      8.76s CPU      8.41s WALL (   21850 calls)
     interpolate  :      0.47s CPU      0.45s WALL (       7 calls)

     Parallel routines

     PWSCF        :     17.66s CPU     18.99s WALL


   This run was terminated on:  12:44:31  11Apr2026            

=------------------------------------------------------------------------------=
   JOB DONE.
=------------------------------------------------------------------------------=
