
     Program PWSCF v.7.5 starts on 11Apr2026 at 12:44:42 

     This program is part of the open-source Quantum ESPRESSO suite
     for quantum simulation of materials; please cite
         "P. Giannozzi et al., J. Phys.:Condens. Matter 21 395502 (2009);
         "P. Giannozzi et al., J. Phys.:Condens. Matter 29 465901 (2017);
         "P. Giannozzi et al., J. Chem. Phys. 152 154105 (2020);
          URL http://www.quantum-espresso.org", 
     in publications or presentations arising from this work. More details at
     http://www.quantum-espresso.org/quote

     Parallel version (MPI), running on     1 processors

     MPI processes distributed on     1 nodes
     2404 MiB available memory on the printing compute node when the environment starts

     Waiting for input...
     Reading input from standard input

     Current dimensions of program PWSCF are:
     Max number of different atomic species (ntypx) = 10
     Max number of k-points (npk) =  40000
     Max angular momentum in pseudopotentials (lmaxx) =  4
     file C.pbe-n-kjpaw_psl.1.0.0.UPF: wavefunction(s)  2S 2P renormalized

     Subspace diagonalization in iterative solution of the eigenvalue problem:
     a serial algorithm will be used


     G-vector sticks info
     --------------------
     sticks:   dense  smooth     PW     G-vecs:    dense   smooth      PW
     Sum         595     301     91                70539    25049    4457

     Using Slab Decomposition



     bravais-lattice index     =            4
     lattice parameter (alat)  =       4.6500  a.u.
     unit-cell volume          =     522.4452 (a.u.)^3
     number of atoms/cell      =            2
     number of atomic types    =            1
     number of electrons       =         8.00
     number of Kohn-Sham states=            8
     kinetic-energy cutoff     =      50.0000  Ry
     charge density cutoff     =     400.0000  Ry
     scf convergence threshold =      1.0E-08
     mixing beta               =       0.7000
     number of iterations used =            8  plain     mixing
     Exchange-correlation= SLA  PW   PBX  PBC
                           (   1   4   3   4   0   0   0)

     celldm(1)=   4.650000  celldm(2)=   0.000000  celldm(3)=   6.000000
     celldm(4)=   0.000000  celldm(5)=   0.000000  celldm(6)=   0.000000

     crystal axes: (cart. coord. in units of alat)
               a(1) = (   1.000000   0.000000   0.000000 )  
               a(2) = (  -0.500000   0.866025   0.000000 )  
               a(3) = (   0.000000   0.000000   6.000000 )  

     reciprocal axes: (cart. coord. in units 2 pi/alat)
               b(1) = (  1.000000  0.577350 -0.000000 )  
               b(2) = (  0.000000  1.154701  0.000000 )  
               b(3) = (  0.000000 -0.000000  0.166667 )  


     PseudoPot. # 1 for C  read from file:
     ./pseudo/C.pbe-n-kjpaw_psl.1.0.0.UPF
     MD5 check sum: 5f16ad9a65e90284d1d834d4ab3b0f7d
     Pseudo is Projector augmented-wave + core cor, Zval =  4.0
     Generated using &quot;atomic&quot; code by A. Dal Corso  v.6.3
     Shape of augmentation charge: PSQ
     Using radial grid of 1073 points,  4 beta functions with: 
                l(1) =   0
                l(2) =   0
                l(3) =   1
                l(4) =   1
     Q(r) pseudized with 0 coefficients 


     atomic species   valence    mass     pseudopotential
     C                 4.00    12.01100     C ( 1.00)

     24 Sym. Ops., with inversion, found (12 have fractional translation)



   Cartesian axes

     site n.     atom                  positions (alat units)
         1        C      tau(   1) = (   0.0000000   0.0000000   0.0000000  )
         2        C      tau(   2) = (  -0.0000005   0.5773506   0.0000000  )

     number of k points=    61  Marzari-Vanderbilt smearing, width (Ry)=  0.0200
                       cart. coord. in units 2pi/alat
        k(    1) = (   0.0000000   0.0000000   0.0000000), wk =   0.0034722
        k(    2) = (   0.0000000   0.0481125   0.0000000), wk =   0.0208333
        k(    3) = (   0.0000000   0.0962250   0.0000000), wk =   0.0208333
        k(    4) = (   0.0000000   0.1443376   0.0000000), wk =   0.0208333
        k(    5) = (   0.0000000   0.1924501   0.0000000), wk =   0.0208333
        k(    6) = (   0.0000000   0.2405626   0.0000000), wk =   0.0208333
        k(    7) = (   0.0000000   0.2886751   0.0000000), wk =   0.0208333
        k(    8) = (   0.0000000   0.3367877   0.0000000), wk =   0.0208333
        k(    9) = (   0.0000000   0.3849002   0.0000000), wk =   0.0208333
        k(   10) = (   0.0000000   0.4330127   0.0000000), wk =   0.0208333
        k(   11) = (   0.0000000   0.4811252   0.0000000), wk =   0.0208333
        k(   12) = (   0.0000000   0.5292377   0.0000000), wk =   0.0208333
        k(   13) = (   0.0000000  -0.5773503   0.0000000), wk =   0.0104167
        k(   14) = (   0.0416667   0.0721688   0.0000000), wk =   0.0208333
        k(   15) = (   0.0416667   0.1202813   0.0000000), wk =   0.0416667
        k(   16) = (   0.0416667   0.1683938   0.0000000), wk =   0.0416667
        k(   17) = (   0.0416667   0.2165064   0.0000000), wk =   0.0416667
        k(   18) = (   0.0416667   0.2646189   0.0000000), wk =   0.0416667
        k(   19) = (   0.0416667   0.3127314   0.0000000), wk =   0.0416667
        k(   20) = (   0.0416667   0.3608439   0.0000000), wk =   0.0416667
        k(   21) = (   0.0416667   0.4089564   0.0000000), wk =   0.0416667
        k(   22) = (   0.0416667   0.4570690   0.0000000), wk =   0.0416667
        k(   23) = (   0.0416667   0.5051815   0.0000000), wk =   0.0416667
        k(   24) = (   0.0416667   0.5532940   0.0000000), wk =   0.0416667
        k(   25) = (   0.0833333   0.1443376   0.0000000), wk =   0.0208333
        k(   26) = (   0.0833333   0.1924501   0.0000000), wk =   0.0416667
        k(   27) = (   0.0833333   0.2405626   0.0000000), wk =   0.0416667
        k(   28) = (   0.0833333   0.2886751   0.0000000), wk =   0.0416667
        k(   29) = (   0.0833333   0.3367877   0.0000000), wk =   0.0416667
        k(   30) = (   0.0833333   0.3849002   0.0000000), wk =   0.0416667
        k(   31) = (   0.0833333   0.4330127   0.0000000), wk =   0.0416667
        k(   32) = (   0.0833333   0.4811252   0.0000000), wk =   0.0416667
        k(   33) = (   0.0833333   0.5292377   0.0000000), wk =   0.0416667
        k(   34) = (   0.0833333   0.5773503   0.0000000), wk =   0.0208333
        k(   35) = (   0.1250000   0.2165064   0.0000000), wk =   0.0208333
        k(   36) = (   0.1250000   0.2646189   0.0000000), wk =   0.0416667
        k(   37) = (   0.1250000   0.3127314   0.0000000), wk =   0.0416667
        k(   38) = (   0.1250000   0.3608439   0.0000000), wk =   0.0416667
        k(   39) = (   0.1250000   0.4089564   0.0000000), wk =   0.0416667
        k(   40) = (   0.1250000   0.4570690   0.0000000), wk =   0.0416667
        k(   41) = (   0.1250000   0.5051815   0.0000000), wk =   0.0416667
        k(   42) = (   0.1250000   0.5532940   0.0000000), wk =   0.0416667
        k(   43) = (   0.1666667   0.2886751   0.0000000), wk =   0.0208333
        k(   44) = (   0.1666667   0.3367877   0.0000000), wk =   0.0416667
        k(   45) = (   0.1666667   0.3849002   0.0000000), wk =   0.0416667
        k(   46) = (   0.1666667   0.4330127   0.0000000), wk =   0.0416667
        k(   47) = (   0.1666667   0.4811252   0.0000000), wk =   0.0416667
        k(   48) = (   0.1666667   0.5292377   0.0000000), wk =   0.0416667
        k(   49) = (   0.1666667   0.5773503   0.0000000), wk =   0.0208333
        k(   50) = (   0.2083333   0.3608439   0.0000000), wk =   0.0208333
        k(   51) = (   0.2083333   0.4089564   0.0000000), wk =   0.0416667
        k(   52) = (   0.2083333   0.4570690   0.0000000), wk =   0.0416667
        k(   53) = (   0.2083333   0.5051815   0.0000000), wk =   0.0416667
        k(   54) = (   0.2083333   0.5532940   0.0000000), wk =   0.0416667
        k(   55) = (   0.2500000   0.4330127   0.0000000), wk =   0.0208333
        k(   56) = (   0.2500000   0.4811252   0.0000000), wk =   0.0416667
        k(   57) = (   0.2500000   0.5292377   0.0000000), wk =   0.0416667
        k(   58) = (   0.2500000   0.5773503   0.0000000), wk =   0.0208333
        k(   59) = (   0.2916667   0.5051815   0.0000000), wk =   0.0208333
        k(   60) = (   0.2916667   0.5532940   0.0000000), wk =   0.0416667
        k(   61) = (   0.3333333   0.5773503   0.0000000), wk =   0.0069444

     Dense  grid:    70539 G-vectors     FFT dimensions: (  30,  30, 180)

     Smooth grid:    25049 G-vectors     FFT dimensions: (  24,  24, 125)

     Estimated max dynamical RAM per process >     113.37 MB

     Check: negative core charge=   -0.000003

     Initial potential from superposition of free atoms

     starting charge       7.9999, renormalised to       8.0000

     negative rho (up, down):  6.645E-05 0.000E+00
     Starting wfcs are    8 randomized atomic wfcs
     Checking if some PAW data can be deallocated... 

     total cpu time spent up to now is        2.0 secs

     Self-consistent Calculation

     iteration #  1     ecut=    50.00 Ry     beta= 0.70
     Davidson diagonalization with overlap
     ethr =  1.00E-02,  avg # of iterations =  5.5

     negative rho (up, down):  7.261E-05 0.000E+00

     total cpu time spent up to now is        5.5 secs

     total energy              =     -36.85862348 Ry
     estimated scf accuracy    <       0.19794487 Ry

     iteration #  2     ecut=    50.00 Ry     beta= 0.70
     Davidson diagonalization with overlap
     ethr =  2.47E-03,  avg # of iterations =  3.7

     negative rho (up, down):  8.160E-05 0.000E+00

     total cpu time spent up to now is        9.7 secs

     total energy              =     -36.88684213 Ry
     estimated scf accuracy    <       0.00208378 Ry

     iteration #  3     ecut=    50.00 Ry     beta= 0.70
     Davidson diagonalization with overlap
     c_bands:  1 eigenvalues not converged
     ethr =  2.60E-05,  avg # of iterations = 10.5

     negative rho (up, down):  8.915E-05 0.000E+00

     total cpu time spent up to now is       14.0 secs

     total energy              =     -36.88709286 Ry
     estimated scf accuracy    <       0.00015758 Ry

     iteration #  4     ecut=    50.00 Ry     beta= 0.70
     Davidson diagonalization with overlap
     ethr =  1.97E-06,  avg # of iterations =  3.3

     negative rho (up, down):  8.962E-05 0.000E+00

     total cpu time spent up to now is       16.6 secs

     total energy              =     -36.88710388 Ry
     estimated scf accuracy    <       0.00000128 Ry

     iteration #  5     ecut=    50.00 Ry     beta= 0.70
     Davidson diagonalization with overlap
     ethr =  1.60E-08,  avg # of iterations =  3.3

     negative rho (up, down):  8.956E-05 0.000E+00

     total cpu time spent up to now is       19.1 secs

     total energy              =     -36.88710480 Ry
     estimated scf accuracy    <       0.00000003 Ry

     iteration #  6     ecut=    50.00 Ry     beta= 0.70
     Davidson diagonalization with overlap
     ethr =  3.83E-10,  avg # of iterations =  2.4

     negative rho (up, down):  8.953E-05 0.000E+00

     total cpu time spent up to now is       21.5 secs

     End of self-consistent calculation

          k = 0.0000 0.0000 0.0000 (  3111 PWs)   bands (ev):

   -21.2338  -9.3184  -4.7041  -4.7040   1.4948   2.3534   2.6612   4.6853

          k = 0.0000 0.0481 0.0000 (  3097 PWs)   bands (ev):

   -21.1926  -9.2690  -4.8736  -4.7939   1.5510   2.4100   2.7180   4.7413

          k = 0.0000 0.0962 0.0000 (  3115 PWs)   bands (ev):

   -21.0693  -9.1214  -5.3567  -5.0449   1.7195   2.5797   2.8885   4.9091

          k = 0.0000 0.1443 0.0000 (  3123 PWs)   bands (ev):

   -20.8640  -8.8763  -6.0899  -5.4118   2.0003   2.8623   3.1726   5.1884

          k = 0.0000 0.1925 0.0000 (  3111 PWs)   bands (ev):

   -20.5774  -8.5356  -6.9999  -5.8428   2.3934   3.2571   3.5703   5.5777

          k = 0.0000 0.2406 0.0000 (  3113 PWs)   bands (ev):

   -20.2103  -8.1022  -8.0222  -6.2929   2.8983   3.7628   4.0815   6.0635

          k = 0.0000 0.2887 0.0000 (  3119 PWs)   bands (ev):

   -19.7639  -9.1061  -7.5804  -6.7284   3.5145   4.3702   4.7056   5.6406

          k = 0.0000 0.3368 0.0000 (  3127 PWs)   bands (ev):

   -19.2400 -10.2140  -7.1250  -6.9775   4.2408   4.4217   5.1699   5.4401

          k = 0.0000 0.3849 0.0000 (  3139 PWs)   bands (ev):

   -18.6410 -11.3179  -7.4664  -6.3059   3.2837   5.0731   5.9815   6.1015

          k = 0.0000 0.4330 0.0000 (  3133 PWs)   bands (ev):

   -17.9710 -12.3959  -7.7413  -5.5890   2.1574   5.8934   6.1241   6.9282

          k = 0.0000 0.4811 0.0000 (  3137 PWs)   bands (ev):

   -17.2392 -13.4269  -7.9422  -4.8758   1.1362   5.8753   7.0962   7.9832

          k = 0.0000 0.5292 0.0000 (  3125 PWs)   bands (ev):

   -16.4771 -14.3713  -8.0645  -4.2800   0.3497   5.8177   8.2459   9.1385

          k = 0.0000-0.5774 0.0000 (  3140 PWs)   bands (ev):

   -15.9649 -14.9449  -8.1056  -4.0263   0.0315   5.7974   9.4262   9.5657

          k = 0.0417 0.0722 0.0000 (  3099 PWs)   bands (ev):

   -21.1104  -9.1705  -5.1906  -4.9737   1.6633   2.5231   2.8317   4.8533

          k = 0.0417 0.1203 0.0000 (  3115 PWs)   bands (ev):

   -20.9460  -8.9742  -5.7777  -5.3040   1.8880   2.7493   3.0590   5.0768

          k = 0.0417 0.1684 0.0000 (  3126 PWs)   bands (ev):

   -20.7001  -8.6812  -6.5781  -5.7247   2.2250   3.0881   3.3999   5.4112

          k = 0.0417 0.2165 0.0000 (  3115 PWs)   bands (ev):

   -20.3733  -8.2940  -7.5274  -6.1826   2.6741   3.5386   3.8545   5.8532

          k = 0.0417 0.2646 0.0000 (  3107 PWs)   bands (ev):

   -19.9665  -8.5685  -7.8161  -6.6377   3.2348   4.0979   4.4223   6.1094

          k = 0.0417 0.3127 0.0000 (  3120 PWs)   bands (ev):

   -19.4814  -9.6563  -7.2530  -7.0621   3.9064   4.7011   5.0925   5.1027

          k = 0.0417 0.3608 0.0000 (  3125 PWs)   bands (ev):

   -18.9198 -10.7569  -7.4365  -6.6142   3.8335   4.6871   5.5902   5.8893

          k = 0.0417 0.4090 0.0000 (  3133 PWs)   bands (ev):

   -18.2851 -11.8446  -7.7480  -5.9162   2.6936   5.5686   6.2466   6.4787

          k = 0.0417 0.4571 0.0000 (  3129 PWs)   bands (ev):

   -17.5831 -12.8980  -7.9880  -5.1921   1.6146   6.0929   6.6120   7.4792

          k = 0.0417 0.5052 0.0000 (  3139 PWs)   bands (ev):

   -16.8293 -13.8912  -8.1508  -4.5161   0.6921   6.0286   7.6988   8.5823

          k = 0.0417 0.5533 0.0000 (  3136 PWs)   bands (ev):

   -16.1078 -14.7340  -8.2329  -4.0562   0.1061   5.9890   8.8962   9.7714

          k = 0.0833 0.1443 0.0000 (  3111 PWs)   bands (ev):

   -20.7411  -8.7299  -6.3935  -5.7271   2.1689   3.0317   3.3432   5.3558

          k = 0.0833 0.1925 0.0000 (  3112 PWs)   bands (ev):

   -20.4549  -8.3903  -7.1819  -6.2267   2.5621   3.4264   3.7410   5.7449

          k = 0.0833 0.2406 0.0000 (  3112 PWs)   bands (ev):

   -20.0884  -8.1091  -7.9582  -6.7313   3.0672   3.9321   4.2525   6.2285

          k = 0.0833 0.2887 0.0000 (  3113 PWs)   bands (ev):

   -19.6429  -9.1268  -7.4380  -7.2032   3.6836   4.5399   4.8771   5.4437

          k = 0.0833 0.3368 0.0000 (  3130 PWs)   bands (ev):

   -19.1201 -10.1902  -7.6226  -6.8369   4.3010   4.4103   5.3055   5.6142

          k = 0.0833 0.3849 0.0000 (  3130 PWs)   bands (ev):

   -18.5226 -11.2641  -7.9779  -6.1668   3.1852   5.2454   6.1340   6.4549

          k = 0.0833 0.4330 0.0000 (  3124 PWs)   bands (ev):

   -17.8547 -12.3216  -8.2609  -5.4504   2.0895   6.1774   6.7224   7.0773

          k = 0.0833 0.4811 0.0000 (  3130 PWs)   bands (ev):

   -17.1256 -13.3384  -8.4665  -4.7354   1.0888   6.5897   7.2658   8.1226

          k = 0.0833 0.5292 0.0000 (  3127 PWs)   bands (ev):

   -16.3674 -14.2728  -8.5912  -4.1339   0.3102   6.5377   8.4061   9.2538

          k = 0.0833 0.5774 0.0000 (  3140 PWs)   bands (ev):

   -15.8592 -14.8403  -8.6329  -3.8756  -0.0081   6.5177   9.5731   9.7219

          k = 0.1250 0.2165 0.0000 (  3113 PWs)   bands (ev):

   -20.1291  -8.0057  -7.8972  -6.8244   3.0113   3.8767   4.1959   6.6089

          k = 0.1250 0.2646 0.0000 (  3122 PWs)   bands (ev):

   -19.7238  -8.7376  -7.5309  -7.4097   3.5721   4.4368   4.7642   5.6673

          k = 0.1250 0.3127 0.0000 (  3121 PWs)   bands (ev):

   -19.2406  -9.6855  -7.9225  -6.9715   4.2438   4.6325   5.1238   5.4457

          k = 0.1250 0.3608 0.0000 (  3118 PWs)   bands (ev):

   -18.6817 -10.6958  -8.3495  -6.3362   3.5766   5.0252   5.8967   6.2396

          k = 0.1250 0.4090 0.0000 (  3118 PWs)   bands (ev):

   -18.0506 -11.7252  -8.6912  -5.6408   2.5082   5.9141   6.7817   7.1402

          k = 0.1250 0.4571 0.0000 (  3126 PWs)   bands (ev):

   -17.3534 -12.7402  -8.9481  -4.9160   1.4844   6.9003   7.4814   7.7649

          k = 0.1250 0.5052 0.0000 (  3125 PWs)   bands (ev):

   -16.6062 -13.7074  -9.1199  -4.2322   0.5918   7.3730   8.0291   8.8269

          k = 0.1250 0.5533 0.0000 (  3128 PWs)   bands (ev):

   -15.8936 -14.5324  -9.2061  -3.7583   0.0107   7.3394   9.2072   9.8879

          k = 0.1667 0.2887 0.0000 (  3091 PWs)   bands (ev):

   -19.2808  -9.4424  -8.1018  -7.0165   4.1883   4.7633   5.0515   5.3894

          k = 0.1667 0.3368 0.0000 (  3110 PWs)   bands (ev):

   -18.7615 -10.2602  -8.6994  -6.4217   3.7998   4.9146   5.7733   6.1276

          k = 0.1667 0.3849 0.0000 (  3107 PWs)   bands (ev):

   -18.1687 -11.1765  -9.1629  -5.7573   2.8043   5.7494   6.5982   6.9778

          k = 0.1667 0.4330 0.0000 (  3123 PWs)   bands (ev):

   -17.5073 -12.1386  -9.5045  -5.0436   1.8123   6.6899   7.5160   7.9367

          k = 0.1667 0.4811 0.0000 (  3115 PWs)   bands (ev):

   -16.7870 -13.0963  -9.7407  -4.3231   0.8807   7.7271   8.4500   8.5000

          k = 0.1667 0.5292 0.0000 (  3117 PWs)   bands (ev):

   -16.0405 -13.9931  -9.8800  -3.7016   0.1272   8.3639   8.8901   9.4547

          k = 0.1667 0.5774 0.0000 (  3110 PWs)   bands (ev):

   -15.5426 -14.5422  -9.9261  -3.4252  -0.1940   8.3512   9.9998  10.1821

          k = 0.2083 0.3608 0.0000 (  3121 PWs)   bands (ev):

   -18.2082 -10.9014  -9.4164  -5.7965   2.9125   5.6942   6.5354   6.9218

          k = 0.2083 0.4090 0.0000 (  3117 PWs)   bands (ev):

   -17.5848 -11.6603  -9.9703  -5.1094   2.0014   6.5804   7.3863   7.8278

          k = 0.2083 0.4571 0.0000 (  3117 PWs)   bands (ev):

   -16.8981 -12.5149 -10.3436  -4.3856   1.0994   7.5683   8.2882   8.8428

          k = 0.2083 0.5052 0.0000 (  3113 PWs)   bands (ev):

   -16.1650 -13.3918 -10.5711  -3.6842   0.2732   8.6459   9.1135   9.5385

          k = 0.2083 0.5533 0.0000 (  3118 PWs)   bands (ev):

   -15.4684 -14.1687 -10.6795  -3.1699  -0.3055   9.4647   9.5648   9.8273

          k = 0.2500 0.4330 0.0000 (  3115 PWs)   bands (ev):

   -16.9355 -12.2125 -10.6558  -4.4077   1.1814   7.5137   8.2137   8.7878

          k = 0.2500 0.4811 0.0000 (  3102 PWs)   bands (ev):

   -16.2319 -12.8910 -11.1200  -3.6825   0.3718   8.5401   8.9198   9.8536

          k = 0.2500 0.5292 0.0000 (  3114 PWs)   bands (ev):

   -15.5060 -13.6417 -11.3657  -3.0145  -0.3471   9.2303   9.6342  10.6139

          k = 0.2500 0.5774 0.0000 (  3109 PWs)   bands (ev):

   -15.0162 -14.1473 -11.4412  -2.6805  -0.6983   9.2754  10.5209  10.6411

          k = 0.2917 0.5052 0.0000 (  3105 PWs)   bands (ev):

   -15.5269 -13.3447 -11.7095  -2.9633  -0.3550   9.1060   9.5829  10.9587

          k = 0.2917 0.5533 0.0000 (  3103 PWs)   bands (ev):

   -14.8497 -13.8988 -12.0058  -2.3313  -0.9880   9.0598  10.6169  11.2960

          k = 0.3333 0.5774 0.0000 (  3135 PWs)   bands (ev):

   -14.2821 -14.2821 -12.2719  -1.6515  -1.6514   8.9740  11.2639  11.2640

     the Fermi energy is    -1.6216 ev

!    total energy              =     -36.88710481 Ry
     total all-electron energy =      -152.415299 Ry
     estimated scf accuracy    <          2.9E-10 Ry
     smearing contrib. (-TS)   =      -0.00002939 Ry
     internal energy E=F+TS    =     -36.88707543 Ry

     The total energy is F=E-TS. E is the sum of the following terms:
     one-electron contribution =    -154.31058850 Ry
     hartree contribution      =      78.79321747 Ry
     xc contribution           =      -9.28333175 Ry
     ewald contribution        =      60.24775952 Ry
     one-center paw contrib.   =     -12.33413217 Ry

     convergence has been achieved in   6 iterations

     Writing all to output data dir ./tmp/graphene.save/ :
     XML data file, charge density, pseudopotentials, collected wavefunctions

     init_run     :      1.90s CPU      1.96s WALL (       1 calls)
     electrons    :     17.62s CPU     19.45s WALL (       1 calls)

     Called by init_run:
     wfcinit      :      0.80s CPU      0.80s WALL (       1 calls)
     potinit      :      0.33s CPU      0.36s WALL (       1 calls)
     hinit0       :      0.67s CPU      0.65s WALL (       1 calls)

     Called by electrons:
     c_bands      :     14.50s CPU     15.74s WALL (       6 calls)
     sum_band     :      2.02s CPU      2.35s WALL (       6 calls)
     v_of_rho     :      0.42s CPU      0.54s WALL (       7 calls)
     newd         :      0.32s CPU      0.56s WALL (       7 calls)
     PAW_pot      :      0.45s CPU      0.43s WALL (       7 calls)
     mix_rho      :      0.04s CPU      0.04s WALL (       6 calls)

     Called by c_bands:
     init_us_2    :      0.36s CPU      0.34s WALL (     793 calls)
     cegterg      :     14.06s CPU     15.32s WALL (     366 calls)

     Called by *egterg:
     cdiaghg      :      0.20s CPU      0.19s WALL (    2115 calls)
     h_psi        :     10.37s CPU     10.10s WALL (    2176 calls)
     s_psi        :      0.77s CPU      0.75s WALL (    2176 calls)
     g_psi        :      0.07s CPU      0.07s WALL (    1749 calls)

     Called by h_psi:
     h_psi:calbec :      0.79s CPU      0.77s WALL (    2176 calls)
     vloc_psi     :      8.73s CPU      8.51s WALL (    2176 calls)
                                        0.00s GPU  (    2176 calls)
     add_vuspsi   :      0.78s CPU      0.76s WALL (    2176 calls)

     General routines
     calbec       :      1.01s CPU      0.98s WALL (    2542 calls)
     fft          :      0.67s CPU      0.65s WALL (      89 calls)
     ffts         :      0.20s CPU      0.19s WALL (      13 calls)
     fftw         :      8.52s CPU      8.30s WALL (   22184 calls)
     interpolate  :      0.21s CPU      0.20s WALL (       7 calls)

     Parallel routines

     PWSCF        :     19.58s CPU     21.56s WALL


   This run was terminated on:  12:45: 4  11Apr2026            

=------------------------------------------------------------------------------=
   JOB DONE.
=------------------------------------------------------------------------------=
