
     Program PWSCF v.7.5 starts on 13Apr2026 at  0: 0: 7 

     This program is part of the open-source Quantum ESPRESSO suite
     for quantum simulation of materials; please cite
         "P. Giannozzi et al., J. Phys.:Condens. Matter 21 395502 (2009);
         "P. Giannozzi et al., J. Phys.:Condens. Matter 29 465901 (2017);
         "P. Giannozzi et al., J. Chem. Phys. 152 154105 (2020);
          URL http://www.quantum-espresso.org", 
     in publications or presentations arising from this work. More details at
     http://www.quantum-espresso.org/quote

     Parallel version (MPI), running on     1 processors

     MPI processes distributed on     1 nodes
     382 MiB available memory on the printing compute node when the environment starts

     Waiting for input...
     Reading input from standard input

     Current dimensions of program PWSCF are:
     Max number of different atomic species (ntypx) = 10
     Max number of k-points (npk) =  40000
     Max angular momentum in pseudopotentials (lmaxx) =  4
     file C.pbe-n-kjpaw_psl.1.0.0.UPF: wavefunction(s)  2S 2P renormalized
     Message from routine setup:
     using ibrav=0 with symmetry is DISCOURAGED, use correct ibrav instead

     Subspace diagonalization in iterative solution of the eigenvalue problem:
     a serial algorithm will be used


     G-vector sticks info
     --------------------
     sticks:   dense  smooth     PW     G-vecs:    dense   smooth      PW
     Sum        1089     547    177               165417    58443   10881

     Using Slab Decomposition



     bravais-lattice index     =            0
     lattice parameter (alat)  =       5.2995  a.u.
     unit-cell volume          =     604.7745 (a.u.)^3
     number of atoms/cell      =            2
     number of atomic types    =            1
     number of electrons       =         8.00
     number of Kohn-Sham states=            8
     kinetic-energy cutoff     =      80.0000  Ry
     charge density cutoff     =     640.0000  Ry
     scf convergence threshold =      1.0E-08
     mixing beta               =       0.7000
     number of iterations used =            8  plain     mixing
     energy convergence thresh.=      1.0E-04
     force convergence thresh. =      1.0E-04
     Exchange-correlation= SLA  PW   PBX  PBC
                           (   1   4   3   4   0   0   0)
     nstep                     =           50


     celldm(1)=   5.299548  celldm(2)=   0.000000  celldm(3)=   0.000000
     celldm(4)=   0.000000  celldm(5)=   0.000000  celldm(6)=   0.000000

     crystal axes: (cart. coord. in units of alat)
               a(1) = (   1.000000   0.000000   0.000000 )  
               a(2) = (  -0.438596   0.759671   0.000000 )  
               a(3) = (   0.000000   0.000000   5.348738 )  

     reciprocal axes: (cart. coord. in units 2 pi/alat)
               b(1) = (  1.000000  0.577350 -0.000000 )  
               b(2) = (  0.000000  1.316359  0.000000 )  
               b(3) = (  0.000000 -0.000000  0.186960 )  


     PseudoPot. # 1 for C  read from file:
     ./pseudo/C.pbe-n-kjpaw_psl.1.0.0.UPF
     MD5 check sum: 5f16ad9a65e90284d1d834d4ab3b0f7d
     Pseudo is Projector augmented-wave + core cor, Zval =  4.0
     Generated using &quot;atomic&quot; code by A. Dal Corso  v.6.3
     Shape of augmentation charge: PSQ
     Using radial grid of 1073 points,  4 beta functions with: 
                l(1) =   0
                l(2) =   0
                l(3) =   1
                l(4) =   1
     Q(r) pseudized with 0 coefficients 


     atomic species   valence    mass     pseudopotential
     C                 4.00    12.01100     C ( 1.00)

      4 Sym. Ops., with inversion, found ( 2 have fractional translation)



   Cartesian axes

     site n.     atom                  positions (alat units)
         1        C      tau(   1) = (   0.0000000   0.0000000   0.0000000  )
         2        C      tau(   2) = (   0.0409352   0.5064477   0.0000000  )

     number of k points=   290  Marzari-Vanderbilt smearing, width (Ry)=  0.0200

     Number of k-points >= 100: set verbosity='high' to print them.

     Dense  grid:   165417 G-vectors     FFT dimensions: (  45,  45, 240)

     Smooth grid:    58443 G-vectors     FFT dimensions: (  36,  27, 162)

     Estimated max dynamical RAM per process >     483.19 MB

     Initial potential from superposition of free atoms

     starting charge       7.9999, renormalised to       8.0000

     negative rho (up, down):  2.361E-05 0.000E+00
     Starting wfcs are    8 randomized atomic wfcs
     Checking if some PAW data can be deallocated... 

     total cpu time spent up to now is       11.9 secs

     Self-consistent Calculation

     iteration #  1     ecut=    80.00 Ry     beta= 0.70
     Davidson diagonalization with overlap
     ethr =  1.00E-02,  avg # of iterations =  6.1

     negative rho (up, down):  2.072E-05 0.000E+00

     total cpu time spent up to now is       50.8 secs

     total energy              =     -36.80282445 Ry
     estimated scf accuracy    <       0.12146073 Ry

     iteration #  2     ecut=    80.00 Ry     beta= 0.70
     Davidson diagonalization with overlap
     ethr =  1.52E-03,  avg # of iterations =  3.8

     negative rho (up, down):  2.562E-05 0.000E+00

     total cpu time spent up to now is       77.8 secs

     total energy              =     -36.81851596 Ry
     estimated scf accuracy    <       0.00172624 Ry

     iteration #  3     ecut=    80.00 Ry     beta= 0.70
     Davidson diagonalization with overlap
     c_bands:  1 eigenvalues not converged
     c_bands:  2 eigenvalues not converged
     c_bands:  1 eigenvalues not converged
     c_bands:  1 eigenvalues not converged
     c_bands:  1 eigenvalues not converged
     c_bands:  1 eigenvalues not converged
     c_bands:  1 eigenvalues not converged
     c_bands:  1 eigenvalues not converged
     c_bands:  1 eigenvalues not converged
     c_bands:  1 eigenvalues not converged
     ethr =  2.16E-05,  avg # of iterations = 10.5

     negative rho (up, down):  2.953E-05 0.000E+00

     total cpu time spent up to now is      126.8 secs

     total energy              =     -36.81872972 Ry
     estimated scf accuracy    <       0.00014150 Ry

     iteration #  4     ecut=    80.00 Ry     beta= 0.70
     Davidson diagonalization with overlap
     c_bands:  1 eigenvalues not converged
     c_bands:  1 eigenvalues not converged
     c_bands:  1 eigenvalues not converged
     c_bands:  1 eigenvalues not converged
     ethr =  1.77E-06,  avg # of iterations =  4.0

     negative rho (up, down):  2.972E-05 0.000E+00

     total cpu time spent up to now is      154.7 secs

     total energy              =     -36.81874043 Ry
     estimated scf accuracy    <       0.00000120 Ry

     iteration #  5     ecut=    80.00 Ry     beta= 0.70
     Davidson diagonalization with overlap
     ethr =  1.51E-08,  avg # of iterations =  3.0

     negative rho (up, down):  2.973E-05 0.000E+00

     total cpu time spent up to now is      183.4 secs

     total energy              =     -36.81874135 Ry
     estimated scf accuracy    <       0.00000003 Ry

     iteration #  6     ecut=    80.00 Ry     beta= 0.70
     Davidson diagonalization with overlap
     ethr =  3.90E-10,  avg # of iterations =  2.9

     negative rho (up, down):  2.972E-05 0.000E+00

     total cpu time spent up to now is      211.5 secs

     End of self-consistent calculation

     Number of k-points >= 100: set verbosity='high' to print the bands.

     the Fermi energy is    -2.4121 ev

!    total energy              =     -36.81874137 Ry
     total all-electron energy =      -152.346936 Ry
     estimated scf accuracy    <          1.2E-09 Ry
     smearing contrib. (-TS)   =       0.00008083 Ry
     internal energy E=F+TS    =     -36.81882220 Ry

     The total energy is F=E-TS. E is the sum of the following terms:
     one-electron contribution =    -137.86964134 Ry
     hartree contribution      =      70.39969221 Ry
     xc contribution           =      -9.01096538 Ry
     ewald contribution        =      51.98760509 Ry
     one-center paw contrib.   =     -12.32551279 Ry

     convergence has been achieved in   6 iterations

     negative rho (up, down):  2.972E-05 0.000E+00

     Forces acting on atoms (cartesian axes, Ry/au):

     atom    1 type  1   force =     0.02345162    0.00276994    0.00000000
     atom    2 type  1   force =    -0.02345162   -0.00276994    0.00000000

     Total force =     0.033396     Total SCF correction =     0.000052

     BFGS Geometry Optimization
     Energy error            =      1.1E-03 Ry
     Gradient error          =      2.3E-02 Ry/Bohr

     number of scf cycles    =   1
     number of bfgs steps    =   0

     energy             new  =     -36.8187413700 Ry

     new trust radius        =       0.0236146371 bohr
     new conv_thr            =       0.0000000100 Ry


ATOMIC_POSITIONS (crystal)
C                0.0047269778        0.0006880268        0.0000000000
C                0.3286060222        0.6659789732        0.0000000000



     Writing config-only to output data dir ./tmp/graphene_0p14_relax.save/ :
     XML data file
     NEW-OLD atomic charge density approx. for the potential

     negative rho (up, down):  2.974E-05 0.000E+00

     total cpu time spent up to now is      216.0 secs

     Self-consistent Calculation

     iteration #  1     ecut=    80.00 Ry     beta= 0.70
     Davidson diagonalization with overlap
     c_bands:  1 eigenvalues not converged
     c_bands:  1 eigenvalues not converged
     ethr =  1.00E-06,  avg # of iterations =  6.9

     negative rho (up, down):  2.984E-05 0.000E+00

     total cpu time spent up to now is      266.6 secs

     total energy              =     -36.81926677 Ry
     estimated scf accuracy    <       0.00010448 Ry

     iteration #  2     ecut=    80.00 Ry     beta= 0.70
     Davidson diagonalization with overlap
     ethr =  1.31E-06,  avg # of iterations =  2.0

     negative rho (up, down):  2.980E-05 0.000E+00

     total cpu time spent up to now is      291.1 secs

     total energy              =     -36.81928035 Ry
     estimated scf accuracy    <       0.00000187 Ry

     iteration #  3     ecut=    80.00 Ry     beta= 0.70
     Davidson diagonalization with overlap
     ethr =  2.34E-08,  avg # of iterations =  2.4

     negative rho (up, down):  2.982E-05 0.000E+00

     total cpu time spent up to now is      318.9 secs

     total energy              =     -36.81928085 Ry
     estimated scf accuracy    <       0.00000014 Ry

     iteration #  4     ecut=    80.00 Ry     beta= 0.70
     Davidson diagonalization with overlap
     ethr =  1.69E-09,  avg # of iterations =  2.1

     negative rho (up, down):  2.982E-05 0.000E+00

     total cpu time spent up to now is      343.8 secs

     End of self-consistent calculation

     Number of k-points >= 100: set verbosity='high' to print the bands.

     the Fermi energy is    -2.4217 ev

!    total energy              =     -36.81928087 Ry
     total all-electron energy =      -152.347475 Ry
     estimated scf accuracy    <          2.3E-09 Ry
     smearing contrib. (-TS)   =       0.00008842 Ry
     internal energy E=F+TS    =     -36.81936929 Ry

     The total energy is F=E-TS. E is the sum of the following terms:
     one-electron contribution =    -137.93206106 Ry
     hartree contribution      =      70.43081787 Ry
     xc contribution           =      -9.01690494 Ry
     ewald contribution        =      52.02490061 Ry
     one-center paw contrib.   =     -12.32612178 Ry

     convergence has been achieved in   4 iterations

     negative rho (up, down):  2.982E-05 0.000E+00

     Forces acting on atoms (cartesian axes, Ry/au):

     atom    1 type  1   force =    -0.00078013   -0.00015164    0.00000000
     atom    2 type  1   force =     0.00078013    0.00015164    0.00000000

     Total force =     0.001124     Total SCF correction =     0.000007
     Energy error            =      5.4E-04 Ry
     Gradient error          =      7.8E-04 Ry/Bohr

     number of scf cycles    =   2
     number of bfgs steps    =   1

     energy             old  =     -36.8187413700 Ry
     energy             new  =     -36.8192808704 Ry

     CASE: energy            _new < energy            _old

     new trust radius        =       0.0007687841 bohr
     new conv_thr            =       0.0000000005 Ry


ATOMIC_POSITIONS (crystal)
C                0.0045685957        0.0006515887        0.0000000000
C                0.3287644043        0.6660154113        0.0000000000



     Writing config-only to output data dir ./tmp/graphene_0p14_relax.save/ :
     XML data file
     NEW-OLD atomic charge density approx. for the potential

     negative rho (up, down):  2.982E-05 0.000E+00

     total cpu time spent up to now is      348.3 secs

     Self-consistent Calculation

     iteration #  1     ecut=    80.00 Ry     beta= 0.70
     Davidson diagonalization with overlap
     ethr =  1.00E-06,  avg # of iterations =  2.0

     Threshold (ethr) on eigenvalues was too large:
     Diagonalizing with lowered threshold

     Davidson diagonalization with overlap
     ethr =  9.84E-10,  avg # of iterations =  3.2

     negative rho (up, down):  2.982E-05 0.000E+00

     total cpu time spent up to now is      403.0 secs

     total energy              =     -36.81928147 Ry
     estimated scf accuracy    <       0.00000011 Ry

     iteration #  2     ecut=    80.00 Ry     beta= 0.70
     Davidson diagonalization with overlap
     ethr =  1.35E-09,  avg # of iterations =  2.0

     negative rho (up, down):  2.982E-05 0.000E+00

     total cpu time spent up to now is      427.5 secs

     total energy              =     -36.81928149 Ry
     estimated scf accuracy    <          2.0E-09 Ry

     iteration #  3     ecut=    80.00 Ry     beta= 0.70
     Davidson diagonalization with overlap
     ethr =  2.48E-11,  avg # of iterations =  2.2

     negative rho (up, down):  2.982E-05 0.000E+00

     total cpu time spent up to now is      453.3 secs

     End of self-consistent calculation

     Number of k-points >= 100: set verbosity='high' to print the bands.

     the Fermi energy is    -2.4219 ev

!    total energy              =     -36.81928149 Ry
     total all-electron energy =      -152.347476 Ry
     estimated scf accuracy    <          1.4E-10 Ry
     smearing contrib. (-TS)   =       0.00008812 Ry
     internal energy E=F+TS    =     -36.81936960 Ry

     The total energy is F=E-TS. E is the sum of the following terms:
     one-electron contribution =    -137.92974944 Ry
     hartree contribution      =      70.42966188 Ry
     xc contribution           =      -9.01668286 Ry
     ewald contribution        =      52.02349890 Ry
     one-center paw contrib.   =     -12.32609809 Ry

     convergence has been achieved in   3 iterations

     negative rho (up, down):  2.982E-05 0.000E+00

     Forces acting on atoms (cartesian axes, Ry/au):

     atom    1 type  1   force =    -0.00000991    0.00002358    0.00000000
     atom    2 type  1   force =     0.00000991   -0.00002358    0.00000000

     Total force =     0.000036     Total SCF correction =     0.000004
     Energy error            =      6.2E-07 Ry
     Gradient error          =      2.4E-05 Ry/Bohr

     bfgs converged in   3 scf cycles and   2 bfgs steps
     (criteria: energy <  1.0E-04 Ry, force <  1.0E-04 Ry/Bohr)

     End of BFGS Geometry Optimization

     Final energy             =     -36.8192814873 Ry

     File ./tmp/graphene_0p14_relax.bfgs deleted, as requested
Begin final coordinates

ATOMIC_POSITIONS (crystal)
C                0.0045685957        0.0006515887        0.0000000000
C                0.3287644043        0.6660154113        0.0000000000
End final coordinates



     Writing all to output data dir ./tmp/graphene_0p14_relax.save/ :
     XML data file, charge density, pseudopotentials, collected wavefunctions

     init_run     :     10.87s CPU     11.80s WALL (       1 calls)
     electrons    :    425.40s CPU    432.54s WALL (       3 calls)
     update_pot   :      0.57s CPU      0.67s WALL (       2 calls)
     forces       :      8.32s CPU      9.24s WALL (       3 calls)

     Called by init_run:
     wfcinit      :      9.05s CPU      9.62s WALL (       1 calls)
     potinit      :      0.58s CPU      0.70s WALL (       1 calls)
     hinit0       :      0.90s CPU      0.92s WALL (       1 calls)

     Called by electrons:
     c_bands      :    366.11s CPU    368.62s WALL (      14 calls)
     sum_band     :     54.29s CPU     57.03s WALL (      14 calls)
     v_of_rho     :      2.97s CPU      3.85s WALL (      16 calls)
     newd         :      1.55s CPU      3.08s WALL (      16 calls)
     PAW_pot      :      1.10s CPU      1.10s WALL (      18 calls)
     mix_rho      :      0.30s CPU      0.30s WALL (      14 calls)

     Called by c_bands:
     init_us_2    :     11.55s CPU     11.71s WALL (    9860 calls)
     cegterg      :    354.20s CPU    356.52s WALL (    4060 calls)

     Called by *egterg:
     cdiaghg      :      1.75s CPU      1.77s WALL (   18575 calls)
     h_psi        :    263.14s CPU    265.45s WALL (   19735 calls)
     s_psi        :     17.85s CPU     17.98s WALL (   19735 calls)
     g_psi        :      1.67s CPU      1.69s WALL (   15385 calls)

     Called by h_psi:
     h_psi:calbec :     19.35s CPU     19.47s WALL (   19735 calls)
     vloc_psi     :    224.54s CPU    226.60s WALL (   19735 calls)
                                        0.00s GPU  (   19735 calls)
     add_vuspsi   :     17.90s CPU     18.04s WALL (   19735 calls)

     General routines
     calbec       :     31.27s CPU     31.56s WALL (   27855 calls)
     fft          :      2.55s CPU      2.57s WALL (     238 calls)
     ffts         :      0.33s CPU      0.33s WALL (      30 calls)
     fftw         :    221.22s CPU    222.93s WALL (  225852 calls)
     interpolate  :      0.46s CPU      0.46s WALL (      16 calls)

     Parallel routines

     PWSCF        :   7m27.30s CPU   7m37.22s WALL


   This run was terminated on:   0: 7:44  13Apr2026            

=------------------------------------------------------------------------------=
   JOB DONE.
=------------------------------------------------------------------------------=
