
     Program PWSCF v.7.5 starts on 13Apr2026 at 10: 3:23 

     This program is part of the open-source Quantum ESPRESSO suite
     for quantum simulation of materials; please cite
         "P. Giannozzi et al., J. Phys.:Condens. Matter 21 395502 (2009);
         "P. Giannozzi et al., J. Phys.:Condens. Matter 29 465901 (2017);
         "P. Giannozzi et al., J. Chem. Phys. 152 154105 (2020);
          URL http://www.quantum-espresso.org", 
     in publications or presentations arising from this work. More details at
     http://www.quantum-espresso.org/quote

     Parallel version (MPI), running on     1 processors

     MPI processes distributed on     1 nodes
     1253 MiB available memory on the printing compute node when the environment starts

     Waiting for input...
     Reading input from standard input

     Current dimensions of program PWSCF are:
     Max number of different atomic species (ntypx) = 10
     Max number of k-points (npk) =  40000
     Max angular momentum in pseudopotentials (lmaxx) =  4
     file C.pbe-n-kjpaw_psl.1.0.0.UPF: wavefunction(s)  2S 2P renormalized

     Atomic positions and unit cell read from directory:
     ./tmp/graphene_0p04_2dscan.save/

     Message from routine setup:
     using ibrav=0 with symmetry is DISCOURAGED, use correct ibrav instead

     Subspace diagonalization in iterative solution of the eigenvalue problem:
     a serial algorithm will be used


     G-vector sticks info
     --------------------
     sticks:   dense  smooth     PW     G-vecs:    dense   smooth      PW
     Sum         991     497    155               150871    53329    9251

     Using Slab Decomposition



     bravais-lattice index     =            0
     lattice parameter (alat)  =       4.8347  a.u.
     unit-cell volume          =     551.7241 (a.u.)^3
     number of atoms/cell      =            2
     number of atomic types    =            1
     number of electrons       =         8.00
     number of Kohn-Sham states=            8
     kinetic-energy cutoff     =      80.0000  Ry
     charge density cutoff     =     640.0000  Ry
     Exchange-correlation= SLA  PW   PBX  PBC
                           (   1   4   3   4   0   0   0)

     celldm(1)=   4.834675  celldm(2)=   0.000000  celldm(3)=   0.000000
     celldm(4)=   0.000000  celldm(5)=   0.000000  celldm(6)=   0.000000

     crystal axes: (cart. coord. in units of alat)
               a(1) = (   1.000000   0.000000   0.000000 )  
               a(2) = (  -0.480769   0.832717   0.000000 )  
               a(3) = (   0.000000   0.000000   5.863039 )  

     reciprocal axes: (cart. coord. in units 2 pi/alat)
               b(1) = (  1.000000  0.577350 -0.000000 )  
               b(2) = (  0.000000  1.200889  0.000000 )  
               b(3) = (  0.000000 -0.000000  0.170560 )  


     PseudoPot. # 1 for C  read from file:
     ./pseudo/C.pbe-n-kjpaw_psl.1.0.0.UPF
     MD5 check sum: 5f16ad9a65e90284d1d834d4ab3b0f7d
     Pseudo is Projector augmented-wave + core cor, Zval =  4.0
     Generated using &quot;atomic&quot; code by A. Dal Corso  v.6.3
     Shape of augmentation charge: PSQ
     Using radial grid of 1073 points,  4 beta functions with: 
                l(1) =   0
                l(2) =   0
                l(3) =   1
                l(4) =   1
     Q(r) pseudized with 0 coefficients 


     atomic species   valence    mass     pseudopotential
     C                 4.00    12.01100     C ( 1.00)

      4 Sym. Ops., with inversion, found ( 2 have fractional translation)



   Cartesian axes

     site n.     atom                  positions (alat units)
         1        C      tau(   1) = (  -0.0005542  -0.0012100   0.0000000  )
         2        C      tau(   2) = (   0.0133742   0.5563546   0.0000000  )

     number of k points=   441  Marzari-Vanderbilt smearing, width (Ry)=  0.0200

     Number of k-points >= 100: set verbosity='high' to print them.

     Dense  grid:   150871 G-vectors     FFT dimensions: (  45,  45, 240)

     Smooth grid:    53329 G-vectors     FFT dimensions: (  27,  27, 162)

     Estimated max dynamical RAM per process >     159.13 MB

     The potential is recalculated from file :
     ./tmp/graphene_0p04_2dscan.save/charge-density


     negative rho (up, down):  3.048E-05 0.000E+00
     Starting wfcs are    8 randomized atomic wfcs
     Checking if some PAW data can be deallocated... 

     Band Structure Calculation
     Davidson diagonalization with overlap

     ethr =  1.25E-10,  avg # of iterations = 38.7

     total cpu time spent up to now is      345.0 secs

     End of band structure calculation

     Number of k-points >= 100: set verbosity='high' to print the bands.

     Writing all to output data dir ./tmp/graphene_0p04_2dscan.save/ :
     XML data file, pseudopotentials, collected wavefunctions

     init_run     :      1.79s CPU      2.13s WALL (       1 calls)
     electrons    :    339.47s CPU    342.79s WALL (       1 calls)

     Called by init_run:
     wfcinit      :      0.00s CPU      0.00s WALL (       1 calls)
     potinit      :      0.50s CPU      0.62s WALL (       1 calls)
     hinit0       :      0.85s CPU      0.90s WALL (       1 calls)

     Called by electrons:
     c_bands      :    339.47s CPU    342.79s WALL (       1 calls)
     v_of_rho     :      0.19s CPU      0.30s WALL (       1 calls)
     newd         :      0.11s CPU      0.22s WALL (       1 calls)
     PAW_pot      :      0.07s CPU      0.07s WALL (       1 calls)

     Called by c_bands:
     init_us_2    :      0.26s CPU      0.53s WALL (     441 calls)
     cegterg      :    326.16s CPU    328.46s WALL (    1018 calls)

     Called by *egterg:
     cdiaghg      :      1.92s CPU      1.95s WALL (   17498 calls)
     h_psi        :    226.02s CPU    227.67s WALL (   18516 calls)
     s_psi        :     15.62s CPU     15.76s WALL (   18516 calls)
     g_psi        :      1.98s CPU      2.00s WALL (   17057 calls)

     Called by h_psi:
     h_psi:calbec :     16.67s CPU     16.79s WALL (   18516 calls)
     vloc_psi     :    192.58s CPU    194.01s WALL (   18516 calls)
                                        0.00s GPU  (   18516 calls)
     add_vuspsi   :     15.65s CPU     15.78s WALL (   18516 calls)

     General routines
     calbec       :     16.54s CPU     16.71s WALL (   18516 calls)
     fft          :      0.73s CPU      0.73s WALL (      13 calls)
     ffts         :      0.21s CPU      0.21s WALL (       1 calls)
     fftw         :    167.60s CPU    169.03s WALL (  172126 calls)
     interpolate  :      0.22s CPU      0.22s WALL (       1 calls)
     davcio       :      0.46s CPU      1.05s WALL (     882 calls)

     Parallel routines

     PWSCF        :   5m41.64s CPU   5m46.35s WALL


   This run was terminated on:  10: 9: 9  13Apr2026            

=------------------------------------------------------------------------------=
   JOB DONE.
=------------------------------------------------------------------------------=
