
     Program BANDS v.7.5 starts on 13Apr2026 at 10:25:39 

     This program is part of the open-source Quantum ESPRESSO suite
     for quantum simulation of materials; please cite
         "P. Giannozzi et al., J. Phys.:Condens. Matter 21 395502 (2009);
         "P. Giannozzi et al., J. Phys.:Condens. Matter 29 465901 (2017);
         "P. Giannozzi et al., J. Chem. Phys. 152 154105 (2020);
          URL http://www.quantum-espresso.org", 
     in publications or presentations arising from this work. More details at
     http://www.quantum-espresso.org/quote

     Parallel version (MPI), running on     1 processors

     MPI processes distributed on     1 nodes
     554 MiB available memory on the printing compute node when the environment starts


     Reading xml data from directory:

     ./tmp/graphene_0p10_2dscan.save/
     file C.pbe-n-kjpaw_psl.1.0.0.UPF: wavefunction(s)  2S 2P renormalized

     IMPORTANT: XC functional enforced from input :
     Exchange-correlation= PBE
                           (   1   4   3   4   0   0   0)
     Any further DFT definition will be discarded
     Please, verify this is what you really want


     G-vector sticks info
     --------------------
     sticks:   dense  smooth     PW     G-vecs:    dense   smooth      PW
     Sum        1045     523    163               159597    56367    9647

     Using Slab Decomposition


     negative rho (up, down):  2.970E-05 0.000E+00
     Reading collected, re-writing distributed wavefunctions
     high-symmetry point:  0.2833 0.5235 0.0000   x coordinate   0.0000
     high-symmetry point:  0.2833 0.6505 0.0000   x coordinate   0.1270
     high-symmetry point:  0.2883 0.5264 0.0000   x coordinate   0.1270
     high-symmetry point:  0.2883 0.6534 0.0000   x coordinate   0.2540
     high-symmetry point:  0.2933 0.5292 0.0000   x coordinate   0.2540
     high-symmetry point:  0.2933 0.6563 0.0000   x coordinate   0.3811
     high-symmetry point:  0.2983 0.5321 0.0000   x coordinate   0.3811
     high-symmetry point:  0.2983 0.6591 0.0000   x coordinate   0.5081
     high-symmetry point:  0.3033 0.5350 0.0000   x coordinate   0.5081
     high-symmetry point:  0.3033 0.6620 0.0000   x coordinate   0.6351
     high-symmetry point:  0.3083 0.5379 0.0000   x coordinate   0.6351
     high-symmetry point:  0.3083 0.6649 0.0000   x coordinate   0.7621
     high-symmetry point:  0.3133 0.5408 0.0000   x coordinate   0.7621
     high-symmetry point:  0.3133 0.6678 0.0000   x coordinate   0.8891
     high-symmetry point:  0.3183 0.5437 0.0000   x coordinate   0.8891
     high-symmetry point:  0.3183 0.6707 0.0000   x coordinate   1.0161
     high-symmetry point:  0.3233 0.5466 0.0000   x coordinate   1.0161
     high-symmetry point:  0.3233 0.6736 0.0000   x coordinate   1.1432
     high-symmetry point:  0.3283 0.5494 0.0000   x coordinate   1.1432
     high-symmetry point:  0.3283 0.6765 0.0000   x coordinate   1.2702
     high-symmetry point:  0.3333 0.5523 0.0000   x coordinate   1.2702
     high-symmetry point:  0.3333 0.6793 0.0000   x coordinate   1.3972
     high-symmetry point:  0.3383 0.5552 0.0000   x coordinate   1.3972
     high-symmetry point:  0.3383 0.6822 0.0000   x coordinate   1.5242
     high-symmetry point:  0.3433 0.5581 0.0000   x coordinate   1.5242
     high-symmetry point:  0.3433 0.6851 0.0000   x coordinate   1.6512
     high-symmetry point:  0.3483 0.5610 0.0000   x coordinate   1.6512
     high-symmetry point:  0.3483 0.6880 0.0000   x coordinate   1.7782
     high-symmetry point:  0.3533 0.5639 0.0000   x coordinate   1.7782
     high-symmetry point:  0.3533 0.6909 0.0000   x coordinate   1.9053
     high-symmetry point:  0.3583 0.5668 0.0000   x coordinate   1.9053
     high-symmetry point:  0.3583 0.6938 0.0000   x coordinate   2.0323
     high-symmetry point:  0.3633 0.5697 0.0000   x coordinate   2.0323
     high-symmetry point:  0.3633 0.6967 0.0000   x coordinate   2.1593
     high-symmetry point:  0.3683 0.5725 0.0000   x coordinate   2.1593
     high-symmetry point:  0.3683 0.6996 0.0000   x coordinate   2.2863
     high-symmetry point:  0.3733 0.5754 0.0000   x coordinate   2.2863
     high-symmetry point:  0.3733 0.7024 0.0000   x coordinate   2.4133
     high-symmetry point:  0.3783 0.5783 0.0000   x coordinate   2.4133
     high-symmetry point:  0.3783 0.7053 0.0000   x coordinate   2.5403
     high-symmetry point:  0.3833 0.5812 0.0000   x coordinate   2.5403
     high-symmetry point:  0.3833 0.7082 0.0000   x coordinate   2.6674

     Plottable bands (eV) written to file graphene_strain_0p10_2dscan.bands.dat.gnu
     Bands written to file graphene_strain_0p10_2dscan.bands.dat

     BANDS        :      3.25s CPU      4.19s WALL


   This run was terminated on:  10:25:43  13Apr2026            

=------------------------------------------------------------------------------=
   JOB DONE.
=------------------------------------------------------------------------------=
