
     Program BANDS v.7.5 starts on 12Apr2026 at 21:35:14 

     This program is part of the open-source Quantum ESPRESSO suite
     for quantum simulation of materials; please cite
         "P. Giannozzi et al., J. Phys.:Condens. Matter 21 395502 (2009);
         "P. Giannozzi et al., J. Phys.:Condens. Matter 29 465901 (2017);
         "P. Giannozzi et al., J. Chem. Phys. 152 154105 (2020);
          URL http://www.quantum-espresso.org", 
     in publications or presentations arising from this work. More details at
     http://www.quantum-espresso.org/quote

     Parallel version (MPI), running on     1 processors

     MPI processes distributed on     1 nodes
     2201 MiB available memory on the printing compute node when the environment starts


     Reading xml data from directory:

     ./tmp/graphene_0p20_relax.save/
     file C.pbe-n-kjpaw_psl.1.0.0.UPF: wavefunction(s)  2S 2P renormalized

     IMPORTANT: XC functional enforced from input :
     Exchange-correlation= PBE
                           (   1   4   3   4   0   0   0)
     Any further DFT definition will be discarded
     Please, verify this is what you really want


     G-vector sticks info
     --------------------
     sticks:   dense  smooth     PW     G-vecs:    dense   smooth      PW
     Sum        1145     575    173               174149    61515   10033

     Using Slab Decomposition


     negative rho (up, down):  3.007E-05 0.000E+00
     Reading collected, re-writing distributed wavefunctions
     high-symmetry point:  0.0000 0.0000 0.0000   x coordinate   0.0000
     high-symmetry point:  0.5000 0.2887 0.0000   x coordinate   0.5774
     high-symmetry point:  0.3333 0.6543 0.0000   x coordinate   0.9792
     high-symmetry point:  0.0000 0.0000 0.0000   x coordinate   1.7134

     Plottable bands (eV) written to file graphene_strain_0p20.bands.dat.gnu
     Bands written to file graphene_strain_0p20.bands.dat

 **************************************************************************

                    xk=(   0.00000,   0.00000,   0.00000  )

     point group C_2h (2/m) 
     there are  4 classes
     the character table:

       E     C2    i     s_h  
A_g    1.00  1.00  1.00  1.00
B_g    1.00 -1.00  1.00 -1.00
A_u    1.00  1.00 -1.00 -1.00
B_u    1.00 -1.00 -1.00  1.00

     the symmetry operations in each class and the name of the first element:

     E        1
                                                                 
     C2       2
                                                                 
     i        3
                                                                 
     s_h      4
                                                                 

     Band symmetry, C_2h (2/m)  point group:

     e(  1 -  1) =    -20.32272  eV     1   --> A_g            
     e(  2 -  2) =     -8.72870  eV     1   --> A_u            
     e(  3 -  3) =     -6.09948  eV     1   --> A_g            
     e(  4 -  4) =     -5.10595  eV     1   --> A_g            
     e(  5 -  5) =     -0.76494  eV     1   --> B_u            
     e(  6 -  6) =      1.32177  eV     1   --> A_g            
     e(  7 -  7) =      2.10626  eV     1   --> A_u            
     e(  8 -  8) =      2.53826  eV     1   --> A_g            

 **************************************************************************

 **************************************************************************

                    xk=(   0.01250,   0.00722,   0.00000  )

     point group C_s (m)    
     there are  2 classes
     the character table:

       E     s    
A'     1.00  1.00
A''    1.00 -1.00

     the symmetry operations in each class and the name of the first element:

     E        1
                                                                 
     s        2
                                                                 

     Band symmetry, C_s (m)     point group:

     e(  1 -  1) =    -20.32034  eV     1   --> A'             
     e(  2 -  2) =     -8.72604  eV     1   --> A''            
     e(  3 -  3) =     -6.10194  eV     1   --> A'             
     e(  4 -  4) =     -5.13353  eV     1   --> A'             
     e(  5 -  5) =     -0.73627  eV     1   --> A'             
     e(  6 -  6) =      1.32561  eV     1   --> A'             
     e(  7 -  7) =      2.10965  eV     1   --> A''            
     e(  8 -  8) =      2.54189  eV     1   --> A'             

 **************************************************************************

 **************************************************************************

                    xk=(   0.02500,   0.01443,   0.00000  )

     Band symmetry, C_s (m)     point group:

     e(  1 -  1) =    -20.31320  eV     1   --> A'             
     e(  2 -  2) =     -8.71805  eV     1   --> A''            
     e(  3 -  3) =     -6.10939  eV     1   --> A'             
     e(  4 -  4) =     -5.21396  eV     1   --> A'             
     e(  5 -  5) =     -0.65250  eV     1   --> A'             
     e(  6 -  6) =      1.33716  eV     1   --> A'             
     e(  7 -  7) =      2.11982  eV     1   --> A''            
     e(  8 -  8) =      2.55279  eV     1   --> A'             

 **************************************************************************

 **************************************************************************

                    xk=(   0.03750,   0.02165,   0.00000  )

     Band symmetry, C_s (m)     point group:

     e(  1 -  1) =    -20.30131  eV     1   --> A'             
     e(  2 -  2) =     -8.70476  eV     1   --> A''            
     e(  3 -  3) =     -6.12219  eV     1   --> A'             
     e(  4 -  4) =     -5.34094  eV     1   --> A'             
     e(  5 -  5) =     -0.51966  eV     1   --> A'             
     e(  6 -  6) =      1.35651  eV     1   --> A'             
     e(  7 -  7) =      2.13674  eV     1   --> A''            
     e(  8 -  8) =      2.57095  eV     1   --> A'             

 **************************************************************************

 **************************************************************************

                    xk=(   0.05000,   0.02887,   0.00000  )

     Band symmetry, C_s (m)     point group:

     e(  1 -  1) =    -20.28469  eV     1   --> A'             
     e(  2 -  2) =     -8.68616  eV     1   --> A''            
     e(  3 -  3) =     -6.14128  eV     1   --> A'             
     e(  4 -  4) =     -5.50562  eV     1   --> A'             
     e(  5 -  5) =     -0.34584  eV     1   --> A'             
     e(  6 -  6) =      1.38383  eV     1   --> A'             
     e(  7 -  7) =      2.16040  eV     1   --> A''            
     e(  8 -  8) =      2.59641  eV     1   --> A'             

 **************************************************************************

 **************************************************************************

                    xk=(   0.06250,   0.03608,   0.00000  )

     Band symmetry, C_s (m)     point group:

     e(  1 -  1) =    -20.26335  eV     1   --> A'             
     e(  2 -  2) =     -8.66231  eV     1   --> A''            
     e(  3 -  3) =     -6.16940  eV     1   --> A'             
     e(  4 -  4) =     -5.69702  eV     1   --> A'             
     e(  5 -  5) =     -0.13953  eV     1   --> A'             
     e(  6 -  6) =      1.41940  eV     1   --> A'             
     e(  7 -  7) =      2.19075  eV     1   --> A''            
     e(  8 -  8) =      2.62918  eV     1   --> A'             

 **************************************************************************

 **************************************************************************

                    xk=(   0.07500,   0.04330,   0.00000  )

     Band symmetry, C_s (m)     point group:

     e(  1 -  1) =    -20.23731  eV     1   --> A'             
     e(  2 -  2) =     -8.63322  eV     1   --> A''            
     e(  3 -  3) =     -6.21651  eV     1   --> A'             
     e(  4 -  4) =     -5.89773  eV     1   --> A'             
     e(  5 -  5) =      0.09134  eV     1   --> A'             
     e(  6 -  6) =      1.46372  eV     1   --> A'             
     e(  7 -  7) =      2.22772  eV     1   --> A''            
     e(  8 -  8) =      2.66931  eV     1   --> A'             

 **************************************************************************

 **************************************************************************

                    xk=(   0.08750,   0.05052,   0.00000  )

     Band symmetry, C_s (m)     point group:

     e(  1 -  1) =    -20.20660  eV     1   --> A'             
     e(  2 -  2) =     -8.59896  eV     1   --> A''            
     e(  3 -  3) =     -6.31975  eV     1   --> A'             
     e(  4 -  4) =     -6.06436  eV     1   --> A'             
     e(  5 -  5) =      0.33965  eV     1   --> A'             
     e(  6 -  6) =      1.51763  eV     1   --> A'             
     e(  7 -  7) =      2.27124  eV     1   --> A''            
     e(  8 -  8) =      2.71684  eV     1   --> A'             

 **************************************************************************

 **************************************************************************

                    xk=(   0.10000,   0.05774,   0.00000  )

     Band symmetry, C_s (m)     point group:

     e(  1 -  1) =    -20.17127  eV     1   --> A'             
     e(  2 -  2) =     -8.55956  eV     1   --> A''            
     e(  3 -  3) =     -6.51703  eV     1   --> A'             
     e(  4 -  4) =     -6.15394  eV     1   --> A'             
     e(  5 -  5) =      0.59877  eV     1   --> A'             
     e(  6 -  6) =      1.58267  eV     1   --> A'             
     e(  7 -  7) =      2.32119  eV     1   --> A''            
     e(  8 -  8) =      2.77186  eV     1   --> A'             

 **************************************************************************

 **************************************************************************

                    xk=(   0.11250,   0.06495,   0.00000  )

     Band symmetry, C_s (m)     point group:

     e(  1 -  1) =    -20.13135  eV     1   --> A'             
     e(  2 -  2) =     -8.51509  eV     1   --> A''            
     e(  3 -  3) =     -6.76500  eV     1   --> A'             
     e(  4 -  4) =     -6.20576  eV     1   --> A'             
     e(  5 -  5) =      0.86162  eV     1   --> A'             
     e(  6 -  6) =      1.66177  eV     1   --> A'             
     e(  7 -  7) =      2.37737  eV     1   --> A''            
     e(  8 -  8) =      2.83447  eV     1   --> A'             

 **************************************************************************

 **************************************************************************

                    xk=(   0.12500,   0.07217,   0.00000  )

     Band symmetry, C_s (m)     point group:

     e(  1 -  1) =    -20.08689  eV     1   --> A'             
     e(  2 -  2) =     -8.46564  eV     1   --> A''            
     e(  3 -  3) =     -7.03200  eV     1   --> A'             
     e(  4 -  4) =     -6.24827  eV     1   --> A'             
     e(  5 -  5) =      1.11899  eV     1   --> A'             
     e(  6 -  6) =      1.76080  eV     1   --> A'             
     e(  7 -  7) =      2.43956  eV     1   --> A''            
     e(  8 -  8) =      2.90485  eV     1   --> A'             

 **************************************************************************

 **************************************************************************

                    xk=(   0.13750,   0.07939,   0.00000  )

     Band symmetry, C_s (m)     point group:

     e(  1 -  1) =    -20.03796  eV     1   --> A'             
     e(  2 -  2) =     -8.41128  eV     1   --> A''            
     e(  3 -  3) =     -7.30805  eV     1   --> A'             
     e(  4 -  4) =     -6.28884  eV     1   --> A'             
     e(  5 -  5) =      1.35714  eV     1   --> A'             
     e(  6 -  6) =      1.89063  eV     1   --> A'             
     e(  7 -  7) =      2.50734  eV     1   --> A''            
     e(  8 -  8) =      2.98327  eV     1   --> A'             

 **************************************************************************

 **************************************************************************

                    xk=(   0.15000,   0.08660,   0.00000  )

     Band symmetry, C_s (m)     point group:

     e(  1 -  1) =    -19.98461  eV     1   --> A'             
     e(  2 -  2) =     -8.35211  eV     1   --> A''            
     e(  3 -  3) =     -7.58898  eV     1   --> A'             
     e(  4 -  4) =     -6.32953  eV     1   --> A'             
     e(  5 -  5) =      1.55998  eV     1   --> A'             
     e(  6 -  6) =      2.06476  eV     1   --> A'             
     e(  7 -  7) =      2.58014  eV     1   --> A''            
     e(  8 -  8) =      3.07014  eV     1   --> A'             

 **************************************************************************

 **************************************************************************

                    xk=(   0.16250,   0.09382,   0.00000  )

     Band symmetry, C_s (m)     point group:

     e(  1 -  1) =    -19.92693  eV     1   --> A'             
     e(  2 -  2) =     -8.28826  eV     1   --> A''            
     e(  3 -  3) =     -7.87241  eV     1   --> A'             
     e(  4 -  4) =     -6.37095  eV     1   --> A'             
     e(  5 -  5) =      1.72364  eV     1   --> A'             
     e(  6 -  6) =      2.28453  eV     1   --> A'             
     e(  7 -  7) =      2.65695  eV     1   --> A''            
     e(  8 -  8) =      3.16621  eV     1   --> A'             

 **************************************************************************

 **************************************************************************

                    xk=(   0.17500,   0.10104,   0.00000  )

     Band symmetry, C_s (m)     point group:

     e(  1 -  1) =    -19.86501  eV     1   --> A'             
     e(  2 -  2) =     -8.21985  eV     1   --> A''            
     e(  3 -  3) =     -8.15672  eV     1   --> A'             
     e(  4 -  4) =     -6.41322  eV     1   --> A'             
     e(  5 -  5) =      1.86151  eV     1   --> A'             
     e(  6 -  6) =      2.53362  eV     1   --> A'             
     e(  7 -  7) =      2.73605  eV     1   --> A''            
     e(  8 -  8) =      3.27278  eV     1   --> A'             

 **************************************************************************

 **************************************************************************

                    xk=(   0.18750,   0.10825,   0.00000  )

     Band symmetry, C_s (m)     point group:

     e(  1 -  1) =    -19.79895  eV     1   --> A'             
     e(  2 -  2) =     -8.44070  eV     1   --> A'             
     e(  3 -  3) =     -8.14702  eV     1   --> A''            
     e(  4 -  4) =     -6.45624  eV     1   --> A'             
     e(  5 -  5) =      1.98824  eV     1   --> A'             
     e(  6 -  6) =      2.79348  eV     1   --> A'             
     e(  7 -  7) =      2.81421  eV     1   --> A''            
     e(  8 -  8) =      3.39230  eV     1   --> A'             

 **************************************************************************

 **************************************************************************

                    xk=(   0.20000,   0.11547,   0.00000  )

     Band symmetry, C_s (m)     point group:

     e(  1 -  1) =    -19.72887  eV     1   --> A'             
     e(  2 -  2) =     -8.72337  eV     1   --> A'             
     e(  3 -  3) =     -8.06996  eV     1   --> A''            
     e(  4 -  4) =     -6.49984  eV     1   --> A'             
     e(  5 -  5) =      2.11233  eV     1   --> A'             
     e(  6 -  6) =      2.88499  eV     1   --> A''            
     e(  7 -  7) =      3.04954  eV     1   --> A'             
     e(  8 -  8) =      3.52946  eV     1   --> A'             

 **************************************************************************

 **************************************************************************

                    xk=(   0.21250,   0.12269,   0.00000  )

     Band symmetry, C_s (m)     point group:

     e(  1 -  1) =    -19.65489  eV     1   --> A'             
     e(  2 -  2) =     -9.00393  eV     1   --> A'             
     e(  3 -  3) =     -7.98884  eV     1   --> A''            
     e(  4 -  4) =     -6.54381  eV     1   --> A'             
     e(  5 -  5) =      2.23800  eV     1   --> A'             
     e(  6 -  6) =      2.93512  eV     1   --> A''            
     e(  7 -  7) =      3.28842  eV     1   --> A'             
     e(  8 -  8) =      3.69207  eV     1   --> A'             

 **************************************************************************

 **************************************************************************

                    xk=(   0.22500,   0.12990,   0.00000  )

     Band symmetry, C_s (m)     point group:

     e(  1 -  1) =    -19.57719  eV     1   --> A'             
     e(  2 -  2) =     -9.28167  eV     1   --> A'             
     e(  3 -  3) =     -7.90388  eV     1   --> A''            
     e(  4 -  4) =     -6.58791  eV     1   --> A'             
     e(  5 -  5) =      2.36739  eV     1   --> A'             
     e(  6 -  6) =      2.94055  eV     1   --> A''            
     e(  7 -  7) =      3.49944  eV     1   --> A'             
     e(  8 -  8) =      3.72234  eV     1   --> A''            

 **************************************************************************

 **************************************************************************

                    xk=(   0.23750,   0.13712,   0.00000  )

     Band symmetry, C_s (m)     point group:

     e(  1 -  1) =    -19.49594  eV     1   --> A'             
     e(  2 -  2) =     -9.55595  eV     1   --> A'             
     e(  3 -  3) =     -7.81534  eV     1   --> A''            
     e(  4 -  4) =     -6.63189  eV     1   --> A'             
     e(  5 -  5) =      2.50163  eV     1   --> A'             
     e(  6 -  6) =      2.87696  eV     1   --> A''            
     e(  7 -  7) =      3.68363  eV     1   --> A'             
     e(  8 -  8) =      3.69874  eV     1   --> A''            

 **************************************************************************

 **************************************************************************

                    xk=(   0.25000,   0.14434,   0.00000  )

     Band symmetry, C_s (m)     point group:

     e(  1 -  1) =    -19.41133  eV     1   --> A'             
     e(  2 -  2) =     -9.82620  eV     1   --> A'             
     e(  3 -  3) =     -7.72349  eV     1   --> A''            
     e(  4 -  4) =     -6.67550  eV     1   --> A'             
     e(  5 -  5) =      2.64136  eV     1   --> A'             
     e(  6 -  6) =      2.74804  eV     1   --> A''            
     e(  7 -  7) =      3.74452  eV     1   --> A''            
     e(  8 -  8) =      3.85222  eV     1   --> A'             

 **************************************************************************

 **************************************************************************

                    xk=(   0.26250,   0.15155,   0.00000  )

     Band symmetry, C_s (m)     point group:

     e(  1 -  1) =    -19.32362  eV     1   --> A'             
     e(  2 -  2) =    -10.09186  eV     1   --> A'             
     e(  3 -  3) =     -7.62864  eV     1   --> A''            
     e(  4 -  4) =     -6.71852  eV     1   --> A'             
     e(  5 -  5) =      2.57839  eV     1   --> A''            
     e(  6 -  6) =      2.78694  eV     1   --> A'             
     e(  7 -  7) =      3.83643  eV     1   --> A''            
     e(  8 -  8) =      4.01530  eV     1   --> A'             

 **************************************************************************

 **************************************************************************

                    xk=(   0.27500,   0.15877,   0.00000  )

     Band symmetry, C_s (m)     point group:

     e(  1 -  1) =    -19.23307  eV     1   --> A'             
     e(  2 -  2) =    -10.35238  eV     1   --> A'             
     e(  3 -  3) =     -7.53115  eV     1   --> A''            
     e(  4 -  4) =     -6.76070  eV     1   --> A'             
     e(  5 -  5) =      2.38770  eV     1   --> A''            
     e(  6 -  6) =      2.93859  eV     1   --> A'             
     e(  7 -  7) =      3.95603  eV     1   --> A''            
     e(  8 -  8) =      4.17851  eV     1   --> A'             

 **************************************************************************

 **************************************************************************

                    xk=(   0.28750,   0.16599,   0.00000  )

     Band symmetry, C_s (m)     point group:

     e(  1 -  1) =    -19.14000  eV     1   --> A'             
     e(  2 -  2) =    -10.60720  eV     1   --> A'             
     e(  3 -  3) =     -7.43144  eV     1   --> A''            
     e(  4 -  4) =     -6.80183  eV     1   --> A'             
     e(  5 -  5) =      2.18682  eV     1   --> A''            
     e(  6 -  6) =      3.09644  eV     1   --> A'             
     e(  7 -  7) =      4.09366  eV     1   --> A''            
     e(  8 -  8) =      4.34466  eV     1   --> A'             

 **************************************************************************

 **************************************************************************

                    xk=(   0.30000,   0.17321,   0.00000  )

     Band symmetry, C_s (m)     point group:

     e(  1 -  1) =    -19.04477  eV     1   --> A'             
     e(  2 -  2) =    -10.85576  eV     1   --> A'             
     e(  3 -  3) =     -7.32997  eV     1   --> A''            
     e(  4 -  4) =     -6.84169  eV     1   --> A'             
     e(  5 -  5) =      1.98167  eV     1   --> A''            
     e(  6 -  6) =      3.26054  eV     1   --> A'             
     e(  7 -  7) =      4.24452  eV     1   --> A''            
     e(  8 -  8) =      4.51515  eV     1   --> A'             

 **************************************************************************

 **************************************************************************

                    xk=(   0.31250,   0.18042,   0.00000  )

     Band symmetry, C_s (m)     point group:

     e(  1 -  1) =    -18.94782  eV     1   --> A'             
     e(  2 -  2) =    -11.09745  eV     1   --> A'             
     e(  3 -  3) =     -7.22726  eV     1   --> A''            
     e(  4 -  4) =     -6.88010  eV     1   --> A'             
     e(  5 -  5) =      1.77587  eV     1   --> A''            
     e(  6 -  6) =      3.43089  eV     1   --> A'             
     e(  7 -  7) =      4.40615  eV     1   --> A''            
     e(  8 -  8) =      4.69063  eV     1   --> A'             

 **************************************************************************

 **************************************************************************

                    xk=(   0.32500,   0.18764,   0.00000  )

     Band symmetry, C_s (m)     point group:

     e(  1 -  1) =    -18.84964  eV     1   --> A'             
     e(  2 -  2) =    -11.33162  eV     1   --> A'             
     e(  3 -  3) =     -7.12390  eV     1   --> A''            
     e(  4 -  4) =     -6.91687  eV     1   --> A'             
     e(  5 -  5) =      1.57192  eV     1   --> A''            
     e(  6 -  6) =      3.60746  eV     1   --> A'             
     e(  7 -  7) =      4.57715  eV     1   --> A''            
     e(  8 -  8) =      4.87132  eV     1   --> A'             

 **************************************************************************

 **************************************************************************

                    xk=(   0.33750,   0.19486,   0.00000  )

     Band symmetry, C_s (m)     point group:

     e(  1 -  1) =    -18.75081  eV     1   --> A'             
     e(  2 -  2) =    -11.55755  eV     1   --> A'             
     e(  3 -  3) =     -7.02059  eV     1   --> A''            
     e(  4 -  4) =     -6.95183  eV     1   --> A'             
     e(  5 -  5) =      1.37179  eV     1   --> A''            
     e(  6 -  6) =      3.79018  eV     1   --> A'             
     e(  7 -  7) =      4.75671  eV     1   --> A''            
     e(  8 -  8) =      5.05710  eV     1   --> A'             

 **************************************************************************

 **************************************************************************

                    xk=(   0.35000,   0.20207,   0.00000  )

     Band symmetry, C_s (m)     point group:

     e(  1 -  1) =    -18.65199  eV     1   --> A'             
     e(  2 -  2) =    -11.77446  eV     1   --> A'             
     e(  3 -  3) =     -6.98481  eV     1   --> A'             
     e(  4 -  4) =     -6.91808  eV     1   --> A''            
     e(  5 -  5) =      1.17721  eV     1   --> A''            
     e(  6 -  6) =      3.97892  eV     1   --> A'             
     e(  7 -  7) =      4.94431  eV     1   --> A''            
     e(  8 -  8) =      5.24736  eV     1   --> A'             

 **************************************************************************

 **************************************************************************

                    xk=(   0.36250,   0.20929,   0.00000  )

     Band symmetry, C_s (m)     point group:

     e(  1 -  1) =    -18.55397  eV     1   --> A'             
     e(  2 -  2) =    -11.98146  eV     1   --> A'             
     e(  3 -  3) =     -7.01568  eV     1   --> A'             
     e(  4 -  4) =     -6.81722  eV     1   --> A''            
     e(  5 -  5) =      0.98974  eV     1   --> A''            
     e(  6 -  6) =      4.17350  eV     1   --> A'             
     e(  7 -  7) =      5.13958  eV     1   --> A''            
     e(  8 -  8) =      5.44059  eV     1   --> A'             

 **************************************************************************

 **************************************************************************

                    xk=(   0.37500,   0.21651,   0.00000  )

     Band symmetry, C_s (m)     point group:

     e(  1 -  1) =    -18.45765  eV     1   --> A'             
     e(  2 -  2) =    -12.17757  eV     1   --> A'             
     e(  3 -  3) =     -7.04429  eV     1   --> A'             
     e(  4 -  4) =     -6.71899  eV     1   --> A''            
     e(  5 -  5) =      0.81093  eV     1   --> A''            
     e(  6 -  6) =      4.37366  eV     1   --> A'             
     e(  7 -  7) =      5.34229  eV     1   --> A''            
     e(  8 -  8) =      5.63286  eV     1   --> A'             

 **************************************************************************

 **************************************************************************

                    xk=(   0.38750,   0.22372,   0.00000  )

     Band symmetry, C_s (m)     point group:

     e(  1 -  1) =    -18.36405  eV     1   --> A'             
     e(  2 -  2) =    -12.36167  eV     1   --> A'             
     e(  3 -  3) =     -7.07054  eV     1   --> A'             
     e(  4 -  4) =     -6.62443  eV     1   --> A''            
     e(  5 -  5) =      0.64230  eV     1   --> A''            
     e(  6 -  6) =      4.57900  eV     1   --> A'             
     e(  7 -  7) =      5.55223  eV     1   --> A''            
     e(  8 -  8) =      5.81261  eV     1   --> A'             

 **************************************************************************

 **************************************************************************

                    xk=(   0.40000,   0.23094,   0.00000  )

     Band symmetry, C_s (m)     point group:

     e(  1 -  1) =    -18.27436  eV     1   --> A'             
     e(  2 -  2) =    -12.53251  eV     1   --> A'             
     e(  3 -  3) =     -7.09431  eV     1   --> A'             
     e(  4 -  4) =     -6.53472  eV     1   --> A''            
     e(  5 -  5) =      0.48540  eV     1   --> A''            
     e(  6 -  6) =      4.78897  eV     1   --> A'             
     e(  7 -  7) =      5.76926  eV     1   --> A''            
     e(  8 -  8) =      5.95069  eV     1   --> A'             

 **************************************************************************

 **************************************************************************

                    xk=(   0.41250,   0.23816,   0.00000  )

     Band symmetry, C_s (m)     point group:

     e(  1 -  1) =    -18.18988  eV     1   --> A'             
     e(  2 -  2) =    -12.68872  eV     1   --> A'             
     e(  3 -  3) =     -7.11550  eV     1   --> A'             
     e(  4 -  4) =     -6.45109  eV     1   --> A''            
     e(  5 -  5) =      0.34181  eV     1   --> A''            
     e(  6 -  6) =      5.00268  eV     1   --> A'             
     e(  7 -  7) =      5.99323  eV     1   --> A''            
     e(  8 -  8) =      6.02780  eV     1   --> A'             

 **************************************************************************

 **************************************************************************

                    xk=(   0.42500,   0.24537,   0.00000  )

     Band symmetry, C_s (m)     point group:

     e(  1 -  1) =    -18.11207  eV     1   --> A'             
     e(  2 -  2) =    -12.82880  eV     1   --> A'             
     e(  3 -  3) =     -7.13404  eV     1   --> A'             
     e(  4 -  4) =     -6.37485  eV     1   --> A''            
     e(  5 -  5) =      0.21311  eV     1   --> A''            
     e(  6 -  6) =      5.21866  eV     1   --> A'             
     e(  7 -  7) =      6.06894  eV     1   --> A'             
     e(  8 -  8) =      6.22404  eV     1   --> A''            

 **************************************************************************

 **************************************************************************

                    xk=(   0.43750,   0.25259,   0.00000  )

     Band symmetry, C_s (m)     point group:

     e(  1 -  1) =    -18.04246  eV     1   --> A'             
     e(  2 -  2) =    -12.95117  eV     1   --> A'             
     e(  3 -  3) =     -7.14984  eV     1   --> A'             
     e(  4 -  4) =     -6.30735  eV     1   --> A''            
     e(  5 -  5) =      0.10085  eV     1   --> A''            
     e(  6 -  6) =      5.43424  eV     1   --> A'             
     e(  7 -  7) =      6.09606  eV     1   --> A'             
     e(  8 -  8) =      6.46155  eV     1   --> A''            

 **************************************************************************

 **************************************************************************

                    xk=(   0.45000,   0.25981,   0.00000  )

     Band symmetry, C_s (m)     point group:

     e(  1 -  1) =    -17.98264  eV     1   --> A'             
     e(  2 -  2) =    -13.05421  eV     1   --> A'             
     e(  3 -  3) =     -7.16285  eV     1   --> A'             
     e(  4 -  4) =     -6.24989  eV     1   --> A''            
     e(  5 -  5) =      0.00654  eV     1   --> A''            
     e(  6 -  6) =      5.64376  eV     1   --> A'             
     e(  7 -  7) =      6.12029  eV     1   --> A'             
     e(  8 -  8) =      6.70562  eV     1   --> A''            

 **************************************************************************

 **************************************************************************

                    xk=(   0.46250,   0.26702,   0.00000  )

     Band symmetry, C_s (m)     point group:

     e(  1 -  1) =    -17.93414  eV     1   --> A'             
     e(  2 -  2) =    -13.13634  eV     1   --> A'             
     e(  3 -  3) =     -7.17303  eV     1   --> A'             
     e(  4 -  4) =     -6.20371  eV     1   --> A''            
     e(  5 -  5) =     -0.06845  eV     1   --> A''            
     e(  6 -  6) =      5.83288  eV     1   --> A'             
     e(  7 -  7) =      6.15442  eV     1   --> A'             
     e(  8 -  8) =      6.95606  eV     1   --> A''            

 **************************************************************************

 **************************************************************************

                    xk=(   0.47500,   0.27424,   0.00000  )

     Band symmetry, C_s (m)     point group:

     e(  1 -  1) =    -17.89836  eV     1   --> A'             
     e(  2 -  2) =    -13.19617  eV     1   --> A'             
     e(  3 -  3) =     -7.18032  eV     1   --> A'             
     e(  4 -  4) =     -6.16988  eV     1   --> A''            
     e(  5 -  5) =     -0.12294  eV     1   --> A''            
     e(  6 -  6) =      5.96664  eV     1   --> A'             
     e(  7 -  7) =      6.22466  eV     1   --> A'             
     e(  8 -  8) =      7.20726  eV     1   --> A'             

 **************************************************************************

 **************************************************************************

                    xk=(   0.48750,   0.28146,   0.00000  )

     Band symmetry, C_s (m)     point group:

     e(  1 -  1) =    -17.87641  eV     1   --> A'             
     e(  2 -  2) =    -13.23256  eV     1   --> A'             
     e(  3 -  3) =     -7.18471  eV     1   --> A'             
     e(  4 -  4) =     -6.14923  eV     1   --> A''            
     e(  5 -  5) =     -0.15602  eV     1   --> A''            
     e(  6 -  6) =      6.02348  eV     1   --> A'             
     e(  7 -  7) =      6.32897  eV     1   --> A'             
     e(  8 -  8) =      7.13448  eV     1   --> A'             

 **************************************************************************

 **************************************************************************

                    xk=(   0.50000,   0.28868,   0.00000  )

     zone border point and non-symmorphic group 
     symmetry decomposition not available

 **************************************************************************

 **************************************************************************

                    xk=(   0.49583,   0.29781,   0.00000  )

     point group C_s (m)    
     there are  2 classes
     the character table:

       E     s    
A'     1.00  1.00
A''    1.00 -1.00

     the symmetry operations in each class and the name of the first element:

     E        1
                                                                 
     s        2
                                                                 

     Band symmetry, C_s (m)     point group:

     e(  1 -  1) =    -17.86793  eV     1   --> A'             
     e(  2 -  2) =    -13.24355  eV     1   --> A'             
     e(  3 -  3) =     -7.19201  eV     1   --> A'             
     e(  4 -  4) =     -6.14085  eV     1   --> A''            
     e(  5 -  5) =     -0.16686  eV     1   --> A''            
     e(  6 -  6) =      6.04199  eV     1   --> A'             
     e(  7 -  7) =      6.38444  eV     1   --> A'             
     e(  8 -  8) =      7.09203  eV     1   --> A'             

 **************************************************************************

 **************************************************************************

                    xk=(   0.49167,   0.30695,   0.00000  )

     Band symmetry, C_s (m)     point group:

     e(  1 -  1) =    -17.86470  eV     1   --> A'             
     e(  2 -  2) =    -13.23988  eV     1   --> A'             
     e(  3 -  3) =     -7.20950  eV     1   --> A'             
     e(  4 -  4) =     -6.13656  eV     1   --> A''            
     e(  5 -  5) =     -0.16610  eV     1   --> A''            
     e(  6 -  6) =      6.05729  eV     1   --> A'             
     e(  7 -  7) =      6.38973  eV     1   --> A'             
     e(  8 -  8) =      7.09851  eV     1   --> A'             

 **************************************************************************

 **************************************************************************

                    xk=(   0.48750,   0.31609,   0.00000  )

     Band symmetry, C_s (m)     point group:

     e(  1 -  1) =    -17.85932  eV     1   --> A'             
     e(  2 -  2) =    -13.23376  eV     1   --> A'             
     e(  3 -  3) =     -7.23849  eV     1   --> A'             
     e(  4 -  4) =     -6.12940  eV     1   --> A''            
     e(  5 -  5) =     -0.16485  eV     1   --> A''            
     e(  6 -  6) =      6.08118  eV     1   --> A'             
     e(  7 -  7) =      6.39992  eV     1   --> A'             
     e(  8 -  8) =      7.10925  eV     1   --> A'             

 **************************************************************************

 **************************************************************************

                    xk=(   0.48333,   0.32523,   0.00000  )

     Band symmetry, C_s (m)     point group:

     e(  1 -  1) =    -17.85178  eV     1   --> A'             
     e(  2 -  2) =    -13.22521  eV     1   --> A'             
     e(  3 -  3) =     -7.27879  eV     1   --> A'             
     e(  4 -  4) =     -6.11938  eV     1   --> A''            
     e(  5 -  5) =     -0.16315  eV     1   --> A''            
     e(  6 -  6) =      6.11090  eV     1   --> A'             
     e(  7 -  7) =      6.41740  eV     1   --> A'             
     e(  8 -  8) =      7.12414  eV     1   --> A'             

 **************************************************************************

 **************************************************************************

                    xk=(   0.47916,   0.33437,   0.00000  )

     Band symmetry, C_s (m)     point group:

     e(  1 -  1) =    -17.84209  eV     1   --> A'             
     e(  2 -  2) =    -13.21421  eV     1   --> A'             
     e(  3 -  3) =     -7.33008  eV     1   --> A'             
     e(  4 -  4) =     -6.10651  eV     1   --> A''            
     e(  5 -  5) =     -0.16105  eV     1   --> A''            
     e(  6 -  6) =      6.14224  eV     1   --> A'             
     e(  7 -  7) =      6.44588  eV     1   --> A'             
     e(  8 -  8) =      7.14305  eV     1   --> A'             

 **************************************************************************

 **************************************************************************

                    xk=(   0.47500,   0.34351,   0.00000  )

     Band symmetry, C_s (m)     point group:

     e(  1 -  1) =    -17.83026  eV     1   --> A'             
     e(  2 -  2) =    -13.20078  eV     1   --> A'             
     e(  3 -  3) =     -7.39203  eV     1   --> A'             
     e(  4 -  4) =     -6.09077  eV     1   --> A''            
     e(  5 -  5) =     -0.15859  eV     1   --> A''            
     e(  6 -  6) =      6.17013  eV     1   --> A'             
     e(  7 -  7) =      6.48973  eV     1   --> A'             
     e(  8 -  8) =      7.16580  eV     1   --> A'             

 **************************************************************************

 **************************************************************************

                    xk=(   0.47083,   0.35265,   0.00000  )

     Band symmetry, C_s (m)     point group:

     e(  1 -  1) =    -17.81627  eV     1   --> A'             
     e(  2 -  2) =    -13.18493  eV     1   --> A'             
     e(  3 -  3) =     -7.46420  eV     1   --> A'             
     e(  4 -  4) =     -6.07219  eV     1   --> A''            
     e(  5 -  5) =     -0.15585  eV     1   --> A''            
     e(  6 -  6) =      6.19072  eV     1   --> A'             
     e(  7 -  7) =      6.55196  eV     1   --> A'             
     e(  8 -  8) =      7.19216  eV     1   --> A'             

 **************************************************************************

 **************************************************************************

                    xk=(   0.46666,   0.36179,   0.00000  )

     Band symmetry, C_s (m)     point group:

     e(  1 -  1) =    -17.80013  eV     1   --> A'             
     e(  2 -  2) =    -13.16666  eV     1   --> A'             
     e(  3 -  3) =     -7.54614  eV     1   --> A'             
     e(  4 -  4) =     -6.05075  eV     1   --> A''            
     e(  5 -  5) =     -0.15292  eV     1   --> A''            
     e(  6 -  6) =      6.20286  eV     1   --> A'             
     e(  7 -  7) =      6.63265  eV     1   --> A'             
     e(  8 -  8) =      7.22186  eV     1   --> A'             

 **************************************************************************

 **************************************************************************

                    xk=(   0.46249,   0.37093,   0.00000  )

     Band symmetry, C_s (m)     point group:

     e(  1 -  1) =    -17.78184  eV     1   --> A'             
     e(  2 -  2) =    -13.14599  eV     1   --> A'             
     e(  3 -  3) =     -7.63732  eV     1   --> A'             
     e(  4 -  4) =     -6.02647  eV     1   --> A''            
     e(  5 -  5) =     -0.14988  eV     1   --> A''            
     e(  6 -  6) =      6.20737  eV     1   --> A'             
     e(  7 -  7) =      6.72971  eV     1   --> A'             
     e(  8 -  8) =      7.25456  eV     1   --> A'             

 **************************************************************************

 **************************************************************************

                    xk=(   0.45832,   0.38007,   0.00000  )

     Band symmetry, C_s (m)     point group:

     e(  1 -  1) =    -17.76141  eV     1   --> A'             
     e(  2 -  2) =    -13.12292  eV     1   --> A'             
     e(  3 -  3) =     -7.73723  eV     1   --> A'             
     e(  4 -  4) =     -5.99935  eV     1   --> A''            
     e(  5 -  5) =     -0.14687  eV     1   --> A''            
     e(  6 -  6) =      6.20546  eV     1   --> A'             
     e(  7 -  7) =      6.84035  eV     1   --> A'             
     e(  8 -  8) =      7.28983  eV     1   --> A'             

 **************************************************************************

 **************************************************************************

                    xk=(   0.45416,   0.38921,   0.00000  )

     Band symmetry, C_s (m)     point group:

     e(  1 -  1) =    -17.73883  eV     1   --> A'             
     e(  2 -  2) =    -13.09748  eV     1   --> A'             
     e(  3 -  3) =     -7.84530  eV     1   --> A'             
     e(  4 -  4) =     -5.96939  eV     1   --> A''            
     e(  5 -  5) =     -0.14400  eV     1   --> A''            
     e(  6 -  6) =      6.19799  eV     1   --> A'             
     e(  7 -  7) =      6.96178  eV     1   --> A'             
     e(  8 -  8) =      7.32713  eV     1   --> A'             

 **************************************************************************

 **************************************************************************

                    xk=(   0.44999,   0.39835,   0.00000  )

     Band symmetry, C_s (m)     point group:

     e(  1 -  1) =    -17.71410  eV     1   --> A'             
     e(  2 -  2) =    -13.06967  eV     1   --> A'             
     e(  3 -  3) =     -7.96098  eV     1   --> A'             
     e(  4 -  4) =     -5.93660  eV     1   --> A''            
     e(  5 -  5) =     -0.14142  eV     1   --> A''            
     e(  6 -  6) =      6.18533  eV     1   --> A'             
     e(  7 -  7) =      7.09118  eV     1   --> A'             
     e(  8 -  8) =      7.36580  eV     1   --> A'             

 **************************************************************************

 **************************************************************************

                    xk=(   0.44582,   0.40749,   0.00000  )

     Band symmetry, C_s (m)     point group:

     e(  1 -  1) =    -17.68723  eV     1   --> A'             
     e(  2 -  2) =    -13.03951  eV     1   --> A'             
     e(  3 -  3) =     -8.08368  eV     1   --> A'             
     e(  4 -  4) =     -5.90099  eV     1   --> A''            
     e(  5 -  5) =     -0.13927  eV     1   --> A''            
     e(  6 -  6) =      6.16753  eV     1   --> A'             
     e(  7 -  7) =      7.22533  eV     1   --> A'             
     e(  8 -  8) =      7.40501  eV     1   --> A'             

 **************************************************************************

 **************************************************************************

                    xk=(   0.44166,   0.41663,   0.00000  )

     Band symmetry, C_s (m)     point group:

     e(  1 -  1) =    -17.65822  eV     1   --> A'             
     e(  2 -  2) =    -13.00703  eV     1   --> A'             
     e(  3 -  3) =     -8.21286  eV     1   --> A'             
     e(  4 -  4) =     -5.86257  eV     1   --> A''            
     e(  5 -  5) =     -0.13775  eV     1   --> A''            
     e(  6 -  6) =      6.14439  eV     1   --> A'             
     e(  7 -  7) =      7.36023  eV     1   --> A'             
     e(  8 -  8) =      7.44391  eV     1   --> A'             

 **************************************************************************

 **************************************************************************

                    xk=(   0.43749,   0.42577,   0.00000  )

     Band symmetry, C_s (m)     point group:

     e(  1 -  1) =    -17.62708  eV     1   --> A'             
     e(  2 -  2) =    -12.97226  eV     1   --> A'             
     e(  3 -  3) =     -8.34796  eV     1   --> A'             
     e(  4 -  4) =     -5.82133  eV     1   --> A''            
     e(  5 -  5) =     -0.13703  eV     1   --> A''            
     e(  6 -  6) =      6.11563  eV     1   --> A'             
     e(  7 -  7) =      7.47950  eV     1   --> A'             
     e(  8 -  8) =      7.49312  eV     1   --> A'             

 **************************************************************************

 **************************************************************************

                    xk=(   0.43332,   0.43491,   0.00000  )

     Band symmetry, C_s (m)     point group:

     e(  1 -  1) =    -17.59379  eV     1   --> A'             
     e(  2 -  2) =    -12.93522  eV     1   --> A'             
     e(  3 -  3) =     -8.48843  eV     1   --> A'             
     e(  4 -  4) =     -5.77730  eV     1   --> A''            
     e(  5 -  5) =     -0.13731  eV     1   --> A''            
     e(  6 -  6) =      6.08096  eV     1   --> A'             
     e(  7 -  7) =      7.51644  eV     1   --> A'             
     e(  8 -  8) =      7.61359  eV     1   --> A'             

 **************************************************************************

 **************************************************************************

                    xk=(   0.42915,   0.44405,   0.00000  )

     Band symmetry, C_s (m)     point group:

     e(  1 -  1) =    -17.55838  eV     1   --> A'             
     e(  2 -  2) =    -12.89594  eV     1   --> A'             
     e(  3 -  3) =     -8.63376  eV     1   --> A'             
     e(  4 -  4) =     -5.73048  eV     1   --> A''            
     e(  5 -  5) =     -0.13882  eV     1   --> A''            
     e(  6 -  6) =      6.04012  eV     1   --> A'             
     e(  7 -  7) =      7.54992  eV     1   --> A'             
     e(  8 -  8) =      7.72310  eV     1   --> A'             

 **************************************************************************

 **************************************************************************

                    xk=(   0.42499,   0.45319,   0.00000  )

     Band symmetry, C_s (m)     point group:

     e(  1 -  1) =    -17.52084  eV     1   --> A'             
     e(  2 -  2) =    -12.85447  eV     1   --> A'             
     e(  3 -  3) =     -8.78342  eV     1   --> A'             
     e(  4 -  4) =     -5.68089  eV     1   --> A''            
     e(  5 -  5) =     -0.14180  eV     1   --> A''            
     e(  6 -  6) =      5.99297  eV     1   --> A'             
     e(  7 -  7) =      7.58169  eV     1   --> A'             
     e(  8 -  8) =      7.77808  eV     1   -->   ?

 **************************************************************************

 **************************************************************************

                    xk=(   0.42082,   0.46233,   0.00000  )

     Band symmetry, C_s (m)     point group:

     e(  1 -  1) =    -17.48117  eV     1   --> A'             
     e(  2 -  2) =    -12.81085  eV     1   --> A'             
     e(  3 -  3) =     -8.93694  eV     1   --> A'             
     e(  4 -  4) =     -5.62853  eV     1   --> A''            
     e(  5 -  5) =     -0.14647  eV     1   --> A''            
     e(  6 -  6) =      5.93949  eV     1   --> A'             
     e(  7 -  7) =      7.61277  eV     1   --> A'             
     e(  8 -  8) =      7.78744  eV     1   --> A''            

 **************************************************************************

 **************************************************************************

                    xk=(   0.41665,   0.47147,   0.00000  )

     Band symmetry, C_s (m)     point group:

     e(  1 -  1) =    -17.43939  eV     1   --> A'             
     e(  2 -  2) =    -12.76515  eV     1   --> A'             
     e(  3 -  3) =     -9.09381  eV     1   --> A'             
     e(  4 -  4) =     -5.57342  eV     1   --> A''            
     e(  5 -  5) =     -0.15312  eV     1   --> A''            
     e(  6 -  6) =      5.87980  eV     1   --> A'             
     e(  7 -  7) =      7.64439  eV     1   --> A'             
     e(  8 -  8) =      7.79511  eV     1   --> A''            

 **************************************************************************

 **************************************************************************

                    xk=(   0.41248,   0.48061,   0.00000  )

     Band symmetry, C_s (m)     point group:

     e(  1 -  1) =    -17.39549  eV     1   --> A'             
     e(  2 -  2) =    -12.71742  eV     1   --> A'             
     e(  3 -  3) =     -9.25359  eV     1   --> A'             
     e(  4 -  4) =     -5.51556  eV     1   --> A''            
     e(  5 -  5) =     -0.16200  eV     1   --> A''            
     e(  6 -  6) =      5.81413  eV     1   --> A'             
     e(  7 -  7) =      7.67770  eV     1   --> A'             
     e(  8 -  8) =      7.80005  eV     1   --> A''            

 **************************************************************************

 **************************************************************************

                    xk=(   0.40831,   0.48975,   0.00000  )

     Band symmetry, C_s (m)     point group:

     e(  1 -  1) =    -17.34948  eV     1   --> A'             
     e(  2 -  2) =    -12.66777  eV     1   --> A'             
     e(  3 -  3) =     -9.41581  eV     1   --> A'             
     e(  4 -  4) =     -5.45499  eV     1   --> A''            
     e(  5 -  5) =     -0.17341  eV     1   --> A''            
     e(  6 -  6) =      5.74285  eV     1   --> A'             
     e(  7 -  7) =      7.71367  eV     1   --> A'             
     e(  8 -  8) =      7.80170  eV     1   --> A''            

 **************************************************************************

 **************************************************************************

                    xk=(   0.40415,   0.49889,   0.00000  )

     Band symmetry, C_s (m)     point group:

     e(  1 -  1) =    -17.30137  eV     1   --> A'             
     e(  2 -  2) =    -12.61630  eV     1   --> A'             
     e(  3 -  3) =     -9.58002  eV     1   --> A'             
     e(  4 -  4) =     -5.39171  eV     1   --> A''            
     e(  5 -  5) =     -0.18761  eV     1   --> A''            
     e(  6 -  6) =      5.66637  eV     1   --> A'             
     e(  7 -  7) =      7.75301  eV     1   --> A'             
     e(  8 -  8) =      7.79959  eV     1   --> A''            

 **************************************************************************

 **************************************************************************

                    xk=(   0.39998,   0.50803,   0.00000  )

     Band symmetry, C_s (m)     point group:

     e(  1 -  1) =    -17.25117  eV     1   --> A'             
     e(  2 -  2) =    -12.56315  eV     1   --> A'             
     e(  3 -  3) =     -9.74573  eV     1   --> A'             
     e(  4 -  4) =     -5.32575  eV     1   --> A''            
     e(  5 -  5) =     -0.20492  eV     1   --> A''            
     e(  6 -  6) =      5.58515  eV     1   --> A'             
     e(  7 -  7) =      7.79349  eV     1   --> A''            
     e(  8 -  8) =      7.79620  eV     1   --> A'             

 **************************************************************************

 **************************************************************************

                    xk=(   0.39581,   0.51717,   0.00000  )

     Band symmetry, C_s (m)     point group:

     e(  1 -  1) =    -17.19888  eV     1   --> A'             
     e(  2 -  2) =    -12.50851  eV     1   --> A'             
     e(  3 -  3) =     -9.91248  eV     1   --> A'             
     e(  4 -  4) =     -5.25712  eV     1   --> A''            
     e(  5 -  5) =     -0.22562  eV     1   --> A''            
     e(  6 -  6) =      5.49969  eV     1   --> A'             
     e(  7 -  7) =      7.78335  eV     1   --> A''            
     e(  8 -  8) =      7.84352  eV     1   --> A'             

 **************************************************************************

 **************************************************************************

                    xk=(   0.39165,   0.52631,   0.00000  )

     Band symmetry, C_s (m)     point group:

     e(  1 -  1) =    -17.14451  eV     1   --> A'             
     e(  2 -  2) =    -12.45264  eV     1   --> A'             
     e(  3 -  3) =    -10.07971  eV     1   --> A'             
     e(  4 -  4) =     -5.18585  eV     1   --> A''            
     e(  5 -  5) =     -0.24998  eV     1   --> A''            
     e(  6 -  6) =      5.41048  eV     1   --> A'             
     e(  7 -  7) =      7.76943  eV     1   --> A''            
     e(  8 -  8) =      7.89513  eV     1   --> A'             

 **************************************************************************

 **************************************************************************

                    xk=(   0.38748,   0.53545,   0.00000  )

     Band symmetry, C_s (m)     point group:

     e(  1 -  1) =    -17.08808  eV     1   --> A'             
     e(  2 -  2) =    -12.39591  eV     1   --> A'             
     e(  3 -  3) =    -10.24680  eV     1   --> A'             
     e(  4 -  4) =     -5.11196  eV     1   --> A''            
     e(  5 -  5) =     -0.27831  eV     1   --> A''            
     e(  6 -  6) =      5.31797  eV     1   --> A'             
     e(  7 -  7) =      7.75222  eV     1   --> A''            
     e(  8 -  8) =      7.95106  eV     1   --> A'             

 **************************************************************************

 **************************************************************************

                    xk=(   0.38331,   0.54459,   0.00000  )

     Band symmetry, C_s (m)     point group:

     e(  1 -  1) =    -17.02960  eV     1   --> A'             
     e(  2 -  2) =    -12.33885  eV     1   --> A'             
     e(  3 -  3) =    -10.41298  eV     1   --> A'             
     e(  4 -  4) =     -5.03548  eV     1   --> A''            
     e(  5 -  5) =     -0.31084  eV     1   --> A''            
     e(  6 -  6) =      5.22261  eV     1   --> A'             
     e(  7 -  7) =      7.73247  eV     1   --> A''            
     e(  8 -  8) =      8.01130  eV     1   --> A'             

 **************************************************************************

 **************************************************************************

                    xk=(   0.37914,   0.55373,   0.00000  )

     Band symmetry, C_s (m)     point group:

     e(  1 -  1) =    -16.96908  eV     1   --> A'             
     e(  2 -  2) =    -12.28224  eV     1   --> A'             
     e(  3 -  3) =    -10.57723  eV     1   --> A'             
     e(  4 -  4) =     -4.95645  eV     1   --> A''            
     e(  5 -  5) =     -0.34784  eV     1   --> A''            
     e(  6 -  6) =      5.12480  eV     1   --> A'             
     e(  7 -  7) =      7.71108  eV     1   --> A''            
     e(  8 -  8) =      8.07578  eV     1   --> A'             

 **************************************************************************

 **************************************************************************

                    xk=(   0.37498,   0.56287,   0.00000  )

     Band symmetry, C_s (m)     point group:

     e(  1 -  1) =    -16.90655  eV     1   --> A'             
     e(  2 -  2) =    -12.22735  eV     1   --> A'             
     e(  3 -  3) =    -10.73809  eV     1   --> A'             
     e(  4 -  4) =     -4.87489  eV     1   --> A''            
     e(  5 -  5) =     -0.38951  eV     1   --> A''            
     e(  6 -  6) =      5.02492  eV     1   --> A'             
     e(  7 -  7) =      7.68905  eV     1   --> A''            
     e(  8 -  8) =      8.14440  eV     1   --> A'             

 **************************************************************************

 **************************************************************************

                    xk=(   0.37081,   0.57201,   0.00000  )

     Band symmetry, C_s (m)     point group:

     e(  1 -  1) =    -16.84202  eV     1   --> A'             
     e(  2 -  2) =    -12.17624  eV     1   --> A'             
     e(  3 -  3) =    -10.89330  eV     1   --> A'             
     e(  4 -  4) =     -4.79085  eV     1   --> A''            
     e(  5 -  5) =     -0.43604  eV     1   --> A''            
     e(  6 -  6) =      4.92330  eV     1   --> A'             
     e(  7 -  7) =      7.66744  eV     1   --> A''            
     e(  8 -  8) =      8.21705  eV     1   --> A'             

 **************************************************************************

 **************************************************************************

                    xk=(   0.36664,   0.58115,   0.00000  )

     Band symmetry, C_s (m)     point group:

     e(  1 -  1) =    -16.77552  eV     1   --> A'             
     e(  2 -  2) =    -12.13239  eV     1   --> A'             
     e(  3 -  3) =    -11.03918  eV     1   --> A'             
     e(  4 -  4) =     -4.70438  eV     1   --> A''            
     e(  5 -  5) =     -0.48757  eV     1   --> A''            
     e(  6 -  6) =      4.82026  eV     1   --> A'             
     e(  7 -  7) =      7.64729  eV     1   --> A''            
     e(  8 -  8) =      8.29357  eV     1   --> A'             

 **************************************************************************

 **************************************************************************

                    xk=(   0.36247,   0.59029,   0.00000  )

     Band symmetry, C_s (m)     point group:

     e(  1 -  1) =    -16.70707  eV     1   --> A'             
     e(  2 -  2) =    -12.10177  eV     1   --> A'             
     e(  3 -  3) =    -11.16961  eV     1   --> A'             
     e(  4 -  4) =     -4.61553  eV     1   --> A''            
     e(  5 -  5) =     -0.54421  eV     1   --> A''            
     e(  6 -  6) =      4.71607  eV     1   --> A'             
     e(  7 -  7) =      7.62957  eV     1   --> A''            
     e(  8 -  8) =      8.37383  eV     1   --> A'             

 **************************************************************************

 **************************************************************************

                    xk=(   0.35830,   0.59943,   0.00000  )

     Band symmetry, C_s (m)     point group:

     e(  1 -  1) =    -16.63672  eV     1   --> A'             
     e(  2 -  2) =    -12.09379  eV     1   --> A'             
     e(  3 -  3) =    -11.27500  eV     1   --> A'             
     e(  4 -  4) =     -4.52436  eV     1   --> A''            
     e(  5 -  5) =     -0.60601  eV     1   --> A''            
     e(  6 -  6) =      4.61097  eV     1   --> A'             
     e(  7 -  7) =      7.61516  eV     1   --> A''            
     e(  8 -  8) =      8.45764  eV     1   --> A'             

 **************************************************************************

 **************************************************************************

                    xk=(   0.35414,   0.60857,   0.00000  )

     Band symmetry, C_s (m)     point group:

     e(  1 -  1) =    -16.56450  eV     1   --> A'             
     e(  2 -  2) =    -12.11984  eV     1   --> A'             
     e(  3 -  3) =    -11.34382  eV     1   --> A'             
     e(  4 -  4) =     -4.43094  eV     1   --> A''            
     e(  5 -  5) =     -0.67297  eV     1   --> A''            
     e(  6 -  6) =      4.50520  eV     1   --> A'             
     e(  7 -  7) =      7.60484  eV     1   --> A''            
     e(  8 -  8) =      8.54478  eV     1   --> A'             

 **************************************************************************

 **************************************************************************

                    xk=(   0.34997,   0.61771,   0.00000  )

     Band symmetry, C_s (m)     point group:

     e(  1 -  1) =    -16.49047  eV     1   --> A'             
     e(  2 -  2) =    -12.18609  eV     1   --> A'             
     e(  3 -  3) =    -11.36973  eV     1   --> A'             
     e(  4 -  4) =     -4.33537  eV     1   --> A''            
     e(  5 -  5) =     -0.74503  eV     1   --> A''            
     e(  6 -  6) =      4.39895  eV     1   --> A'             
     e(  7 -  7) =      7.59927  eV     1   --> A''            
     e(  8 -  8) =      8.63501  eV     1   --> A'             

 **************************************************************************

 **************************************************************************

                    xk=(   0.34580,   0.62685,   0.00000  )

     Band symmetry, C_s (m)     point group:

     e(  1 -  1) =    -16.41468  eV     1   --> A'             
     e(  2 -  2) =    -12.28755  eV     1   --> A'             
     e(  3 -  3) =    -11.35757  eV     1   --> A'             
     e(  4 -  4) =     -4.23775  eV     1   --> A''            
     e(  5 -  5) =     -0.82207  eV     1   --> A''            
     e(  6 -  6) =      4.29240  eV     1   --> A'             
     e(  7 -  7) =      7.59899  eV     1   --> A''            
     e(  8 -  8) =      8.72796  eV     1   --> A'             

 **************************************************************************

 **************************************************************************

                    xk=(   0.34164,   0.63599,   0.00000  )

     Band symmetry, C_s (m)     point group:

     e(  1 -  1) =    -16.33721  eV     1   --> A'             
     e(  2 -  2) =    -12.41312  eV     1   --> A'             
     e(  3 -  3) =    -11.31829  eV     1   --> A'             
     e(  4 -  4) =     -4.13822  eV     1   --> A''            
     e(  5 -  5) =     -0.90390  eV     1   --> A''            
     e(  6 -  6) =      4.18573  eV     1   --> A'             
     e(  7 -  7) =      7.60442  eV     1   --> A''            
     e(  8 -  8) =      8.82318  eV     1   --> A'             

 **************************************************************************

 **************************************************************************

                    xk=(   0.33747,   0.64513,   0.00000  )

     Band symmetry, C_s (m)     point group:

     e(  1 -  1) =    -16.25817  eV     1   --> A'             
     e(  2 -  2) =    -12.55313  eV     1   --> A'             
     e(  3 -  3) =    -11.26138  eV     1   --> A'             
     e(  4 -  4) =     -4.03694  eV     1   --> A''            
     e(  5 -  5) =     -0.99024  eV     1   --> A''            
     e(  6 -  6) =      4.07908  eV     1   --> A'             
     e(  7 -  7) =      7.61584  eV     1   --> A''            
     e(  8 -  8) =      8.91996  eV     1   --> A'             

 **************************************************************************

 **************************************************************************

                    xk=(   0.33330,   0.65427,   0.00000  )

     Band symmetry, C_s (m)     point group:

     e(  1 -  1) =    -16.17768  eV     1   --> A'             
     e(  2 -  2) =    -12.70124  eV     1   --> A'             
     e(  3 -  3) =    -11.19299  eV     1   --> A'             
     e(  4 -  4) =     -3.93413  eV     1   --> A''            
     e(  5 -  5) =     -1.08076  eV     1   --> A''            
     e(  6 -  6) =      3.97259  eV     1   --> A'             
     e(  7 -  7) =      7.63345  eV     1   --> A''            
     e(  8 -  8) =      9.01725  eV     1   --> A'             

 **************************************************************************

 **************************************************************************

                    xk=(   0.32497,   0.63791,   0.00000  )

     Band symmetry, C_s (m)     point group:

     e(  1 -  1) =    -16.22967  eV     1   --> A'             
     e(  2 -  2) =    -12.55320  eV     1   --> A'             
     e(  3 -  3) =    -11.29012  eV     1   --> A'             
     e(  4 -  4) =     -3.99847  eV     1   --> A''            
     e(  5 -  5) =     -1.01893  eV     1   --> A''            
     e(  6 -  6) =      3.94328  eV     1   --> A'             
     e(  7 -  7) =      7.64188  eV     1   --> A''            
     e(  8 -  8) =      9.18356  eV     1   --> A'             

 **************************************************************************

 **************************************************************************

                    xk=(   0.31663,   0.62155,   0.00000  )

     Band symmetry, C_s (m)     point group:

     e(  1 -  1) =    -16.29420  eV     1   --> A'             
     e(  2 -  2) =    -12.41604  eV     1   --> A'             
     e(  3 -  3) =    -11.34689  eV     1   --> A'             
     e(  4 -  4) =     -4.08087  eV     1   --> A''            
     e(  5 -  5) =     -0.94251  eV     1   --> A''            
     e(  6 -  6) =      3.90399  eV     1   --> A'             
     e(  7 -  7) =      7.66092  eV     1   --> A''            
     e(  8 -  8) =      9.21296  eV     1   --> A'             

 **************************************************************************

 **************************************************************************

                    xk=(   0.30830,   0.60520,   0.00000  )

     Band symmetry, C_s (m)     point group:

     e(  1 -  1) =    -16.37202  eV     1   --> A'             
     e(  2 -  2) =    -12.29601  eV     1   --> A'             
     e(  3 -  3) =    -11.35609  eV     1   --> A'             
     e(  4 -  4) =     -4.18079  eV     1   --> A''            
     e(  5 -  5) =     -0.85107  eV     1   --> A''            
     e(  6 -  6) =      3.85686  eV     1   --> A'             
     e(  7 -  7) =      7.68524  eV     1   --> A''            
     e(  8 -  8) =      8.87084  eV     1   --> A'             

 **************************************************************************

 **************************************************************************

                    xk=(   0.29997,   0.58884,   0.00000  )

     Band symmetry, C_s (m)     point group:

     e(  1 -  1) =    -16.46341  eV     1   --> A'             
     e(  2 -  2) =    -12.19707  eV     1   --> A'             
     e(  3 -  3) =    -11.31339  eV     1   --> A'             
     e(  4 -  4) =     -4.29709  eV     1   --> A''            
     e(  5 -  5) =     -0.74469  eV     1   --> A''            
     e(  6 -  6) =      3.80373  eV     1   --> A'             
     e(  7 -  7) =      7.70606  eV     1   --> A''            
     e(  8 -  8) =      8.50891  eV     1   --> A'             

 **************************************************************************

 **************************************************************************

                    xk=(   0.29164,   0.57248,   0.00000  )

     Band symmetry, C_s (m)     point group:

     e(  1 -  1) =    -16.56807  eV     1   --> A'             
     e(  2 -  2) =    -12.11657  eV     1   --> A'             
     e(  3 -  3) =    -11.22168  eV     1   --> A'             
     e(  4 -  4) =     -4.42818  eV     1   --> A''            
     e(  5 -  5) =     -0.62382  eV     1   --> A''            
     e(  6 -  6) =      3.74613  eV     1   --> A'             
     e(  7 -  7) =      7.70973  eV     1   --> A''            
     e(  8 -  8) =      8.14295  eV     1   --> A'             

 **************************************************************************

 **************************************************************************

                    xk=(   0.28330,   0.55613,   0.00000  )

     Band symmetry, C_s (m)     point group:

     e(  1 -  1) =    -16.68520  eV     1   --> A'             
     e(  2 -  2) =    -12.04549  eV     1   --> A'             
     e(  3 -  3) =    -11.09082  eV     1   --> A'             
     e(  4 -  4) =     -4.57223  eV     1   --> A''            
     e(  5 -  5) =     -0.48920  eV     1   --> A''            
     e(  6 -  6) =      3.68534  eV     1   --> A'             
     e(  7 -  7) =      7.67727  eV     1   --> A''            
     e(  8 -  8) =      7.77856  eV     1   --> A'             

 **************************************************************************

 **************************************************************************

                    xk=(   0.27497,   0.53977,   0.00000  )

     Band symmetry, C_s (m)     point group:

     e(  1 -  1) =    -16.81357  eV     1   --> A'             
     e(  2 -  2) =    -11.97368  eV     1   --> A'             
     e(  3 -  3) =    -10.93232  eV     1   --> A'             
     e(  4 -  4) =     -4.72726  eV     1   --> A''            
     e(  5 -  5) =     -0.34166  eV     1   --> A''            
     e(  6 -  6) =      3.62241  eV     1   --> A'             
     e(  7 -  7) =      7.41895  eV     1   --> A'             
     e(  8 -  8) =      7.58908  eV     1   --> A''            

 **************************************************************************

 **************************************************************************

                    xk=(   0.26664,   0.52341,   0.00000  )

     Band symmetry, C_s (m)     point group:

     e(  1 -  1) =    -16.95166  eV     1   --> A'             
     e(  2 -  2) =    -11.89373  eV     1   --> A'             
     e(  3 -  3) =    -10.75528  eV     1   --> A'             
     e(  4 -  4) =     -4.89132  eV     1   --> A''            
     e(  5 -  5) =     -0.18213  eV     1   --> A''            
     e(  6 -  6) =      3.55815  eV     1   --> A'             
     e(  7 -  7) =      7.06609  eV     1   --> A'             
     e(  8 -  8) =      7.43671  eV     1   --> A''            

 **************************************************************************

 **************************************************************************

                    xk=(   0.25831,   0.50706,   0.00000  )

     Band symmetry, C_s (m)     point group:

     e(  1 -  1) =    -17.09778  eV     1   --> A'             
     e(  2 -  2) =    -11.80143  eV     1   --> A'             
     e(  3 -  3) =    -10.56584  eV     1   --> A'             
     e(  4 -  4) =     -5.06252  eV     1   --> A''            
     e(  5 -  5) =     -0.01153  eV     1   --> A''            
     e(  6 -  6) =      3.49321  eV     1   --> A'             
     e(  7 -  7) =      6.72127  eV     1   --> A'             
     e(  8 -  8) =      7.22947  eV     1   --> A''            

 **************************************************************************

 **************************************************************************

                    xk=(   0.24998,   0.49070,   0.00000  )

     Band symmetry, C_s (m)     point group:

     e(  1 -  1) =    -17.25020  eV     1   --> A'             
     e(  2 -  2) =    -11.69483  eV     1   --> A'             
     e(  3 -  3) =    -10.36800  eV     1   --> A'             
     e(  4 -  4) =     -5.23910  eV     1   --> A''            
     e(  5 -  5) =      0.16924  eV     1   --> A''            
     e(  6 -  6) =      3.42802  eV     1   --> A'             
     e(  7 -  7) =      6.38540  eV     1   --> A'             
     e(  8 -  8) =      6.98569  eV     1   --> A''            

 **************************************************************************

 **************************************************************************

                    xk=(   0.24164,   0.47434,   0.00000  )

     Band symmetry, C_s (m)     point group:

     e(  1 -  1) =    -17.40723  eV     1   --> A'             
     e(  2 -  2) =    -11.57331  eV     1   --> A'             
     e(  3 -  3) =    -10.16441  eV     1   --> A'             
     e(  4 -  4) =     -5.41943  eV     1   --> A''            
     e(  5 -  5) =      0.35932  eV     1   --> A''            
     e(  6 -  6) =      3.36287  eV     1   --> A'             
     e(  7 -  7) =      6.05911  eV     1   --> A'             
     e(  8 -  8) =      6.72179  eV     1   --> A''            

 **************************************************************************

 **************************************************************************

                    xk=(   0.23331,   0.45799,   0.00000  )

     Band symmetry, C_s (m)     point group:

     e(  1 -  1) =    -17.56730  eV     1   --> A'             
     e(  2 -  2) =    -11.43696  eV     1   --> A'             
     e(  3 -  3) =     -9.95699  eV     1   --> A'             
     e(  4 -  4) =     -5.60205  eV     1   --> A''            
     e(  5 -  5) =      0.55786  eV     1   --> A''            
     e(  6 -  6) =      3.29784  eV     1   --> A'             
     e(  7 -  7) =      5.74288  eV     1   --> A'             
     e(  8 -  8) =      6.44902  eV     1   --> A''            

 **************************************************************************

 **************************************************************************

                    xk=(   0.22498,   0.44163,   0.00000  )

     Band symmetry, C_s (m)     point group:

     e(  1 -  1) =    -17.72897  eV     1   --> A'             
     e(  2 -  2) =    -11.28626  eV     1   --> A'             
     e(  3 -  3) =     -9.74716  eV     1   --> A'             
     e(  4 -  4) =     -5.78563  eV     1   --> A''            
     e(  5 -  5) =      0.76403  eV     1   --> A''            
     e(  6 -  6) =      3.23286  eV     1   --> A'             
     e(  7 -  7) =      5.43711  eV     1   --> A'             
     e(  8 -  8) =      6.17443  eV     1   --> A''            

 **************************************************************************

 **************************************************************************

                    xk=(   0.21665,   0.42527,   0.00000  )

     Band symmetry, C_s (m)     point group:

     e(  1 -  1) =    -17.89097  eV     1   --> A'             
     e(  2 -  2) =    -11.12186  eV     1   --> A'             
     e(  3 -  3) =     -9.53611  eV     1   --> A'             
     e(  4 -  4) =     -5.96898  eV     1   --> A''            
     e(  5 -  5) =      0.97699  eV     1   --> A''            
     e(  6 -  6) =      3.16762  eV     1   --> A'             
     e(  7 -  7) =      5.14211  eV     1   --> A'             
     e(  8 -  8) =      5.90242  eV     1   --> A''            

 **************************************************************************

 **************************************************************************

                    xk=(   0.20831,   0.40892,   0.00000  )

     Band symmetry, C_s (m)     point group:

     e(  1 -  1) =    -18.05215  eV     1   --> A'             
     e(  2 -  2) =    -10.94445  eV     1   --> A'             
     e(  3 -  3) =     -9.32485  eV     1   --> A'             
     e(  4 -  4) =     -6.15106  eV     1   --> A''            
     e(  5 -  5) =      1.19589  eV     1   --> A''            
     e(  6 -  6) =      3.10162  eV     1   --> A'             
     e(  7 -  7) =      4.85819  eV     1   --> A'             
     e(  8 -  8) =      5.63583  eV     1   --> A''            

 **************************************************************************

 **************************************************************************

                    xk=(   0.19998,   0.39256,   0.00000  )

     Band symmetry, C_s (m)     point group:

     e(  1 -  1) =    -18.21154  eV     1   --> A'             
     e(  2 -  2) =    -10.75475  eV     1   --> A'             
     e(  3 -  3) =     -9.11430  eV     1   --> A'             
     e(  4 -  4) =     -6.33091  eV     1   --> A''            
     e(  5 -  5) =      1.41981  eV     1   --> A''            
     e(  6 -  6) =      3.03409  eV     1   --> A'             
     e(  7 -  7) =      4.58563  eV     1   --> A'             
     e(  8 -  8) =      5.37657  eV     1   --> A''            

 **************************************************************************

 **************************************************************************

                    xk=(   0.19165,   0.37620,   0.00000  )

     Band symmetry, C_s (m)     point group:

     e(  1 -  1) =    -18.36828  eV     1   --> A'             
     e(  2 -  2) =    -10.55344  eV     1   --> A'             
     e(  3 -  3) =     -8.90533  eV     1   --> A'             
     e(  4 -  4) =     -6.50771  eV     1   --> A''            
     e(  5 -  5) =      1.64775  eV     1   --> A''            
     e(  6 -  6) =      2.96400  eV     1   --> A'             
     e(  7 -  7) =      4.32473  eV     1   --> A'             
     e(  8 -  8) =      5.12610  eV     1   --> A''            

 **************************************************************************

 **************************************************************************

                    xk=(   0.18332,   0.35985,   0.00000  )

     Band symmetry, C_s (m)     point group:

     e(  1 -  1) =    -18.52162  eV     1   --> A'             
     e(  2 -  2) =    -10.34118  eV     1   --> A'             
     e(  3 -  3) =     -8.69877  eV     1   --> A'             
     e(  4 -  4) =     -6.68072  eV     1   --> A''            
     e(  5 -  5) =      1.87853  eV     1   --> A''            
     e(  6 -  6) =      2.89001  eV     1   --> A'             
     e(  7 -  7) =      4.07580  eV     1   --> A'             
     e(  8 -  8) =      4.88559  eV     1   --> A''            

 **************************************************************************

 **************************************************************************

                    xk=(   0.17498,   0.34349,   0.00000  )

     Band symmetry, C_s (m)     point group:

     e(  1 -  1) =    -18.67094  eV     1   --> A'             
     e(  2 -  2) =    -10.11861  eV     1   --> A'             
     e(  3 -  3) =     -8.49541  eV     1   --> A'             
     e(  4 -  4) =     -6.84928  eV     1   --> A''            
     e(  5 -  5) =      2.11066  eV     1   --> A''            
     e(  6 -  6) =      2.81044  eV     1   --> A'             
     e(  7 -  7) =      3.83919  eV     1   --> A'             
     e(  8 -  8) =      4.65629  eV     1   --> A''            

 **************************************************************************

 **************************************************************************

                    xk=(   0.16665,   0.32713,   0.00000  )

     Band symmetry, C_s (m)     point group:

     e(  1 -  1) =    -18.81568  eV     1   --> A'             
     e(  2 -  2) =     -9.88633  eV     1   --> A'             
     e(  3 -  3) =     -8.29604  eV     1   --> A'             
     e(  4 -  4) =     -7.01281  eV     1   --> A''            
     e(  5 -  5) =      2.34212  eV     1   --> A''            
     e(  6 -  6) =      2.72337  eV     1   --> A'             
     e(  7 -  7) =      3.61522  eV     1   --> A'             
     e(  8 -  8) =      4.43973  eV     1   --> A''            

 **************************************************************************

 **************************************************************************

                    xk=(   0.15832,   0.31078,   0.00000  )

     Band symmetry, C_s (m)     point group:

     e(  1 -  1) =    -18.95537  eV     1   --> A'             
     e(  2 -  2) =     -9.64497  eV     1   --> A'             
     e(  3 -  3) =     -8.10142  eV     1   --> A'             
     e(  4 -  4) =     -7.17078  eV     1   --> A''            
     e(  5 -  5) =      2.56973  eV     1   --> A''            
     e(  6 -  6) =      2.62667  eV     1   --> A'             
     e(  7 -  7) =      3.40406  eV     1   --> A'             
     e(  8 -  8) =      4.23844  eV     1   --> A''            

 **************************************************************************

 **************************************************************************

                    xk=(   0.14999,   0.29442,   0.00000  )

     Band symmetry, C_s (m)     point group:

     e(  1 -  1) =    -19.08959  eV     1   --> A'             
     e(  2 -  2) =     -9.39512  eV     1   --> A'             
     e(  3 -  3) =     -7.91229  eV     1   --> A'             
     e(  4 -  4) =     -7.32275  eV     1   --> A''            
     e(  5 -  5) =      2.51835  eV     1   --> A'             
     e(  6 -  6) =      2.78755  eV     1   --> A''            
     e(  7 -  7) =      3.20554  eV     1   --> A'             
     e(  8 -  8) =      4.05751  eV     1   --> A''            

 **************************************************************************

 **************************************************************************

                    xk=(   0.14165,   0.27806,   0.00000  )

     Band symmetry, C_s (m)     point group:

     e(  1 -  1) =    -19.21799  eV     1   --> A'             
     e(  2 -  2) =     -9.13742  eV     1   --> A'             
     e(  3 -  3) =     -7.72936  eV     1   --> A'             
     e(  4 -  4) =     -7.46831  eV     1   --> A''            
     e(  5 -  5) =      2.39689  eV     1   --> A'             
     e(  6 -  6) =      2.98236  eV     1   --> A''            
     e(  7 -  7) =      3.01884  eV     1   --> A'             
     e(  8 -  8) =      3.90915  eV     1   --> A''            

 **************************************************************************

 **************************************************************************

                    xk=(   0.13332,   0.26171,   0.00000  )

     Band symmetry, C_s (m)     point group:

     e(  1 -  1) =    -19.34027  eV     1   --> A'             
     e(  2 -  2) =     -8.87254  eV     1   --> A'             
     e(  3 -  3) =     -7.60708  eV     1   --> A''            
     e(  4 -  4) =     -7.55332  eV     1   --> A'             
     e(  5 -  5) =      2.26157  eV     1   --> A'             
     e(  6 -  6) =      2.84233  eV     1   --> A'             
     e(  7 -  7) =      3.12195  eV     1   --> A''            
     e(  8 -  8) =      3.82430  eV     1   --> A''            

 **************************************************************************

 **************************************************************************

                    xk=(   0.12499,   0.24535,   0.00000  )

     Band symmetry, C_s (m)     point group:

     e(  1 -  1) =    -19.45615  eV     1   --> A'             
     e(  2 -  2) =     -8.60124  eV     1   --> A'             
     e(  3 -  3) =     -7.73876  eV     1   --> A''            
     e(  4 -  4) =     -7.38481  eV     1   --> A'             
     e(  5 -  5) =      2.11240  eV     1   --> A'             
     e(  6 -  6) =      2.67386  eV     1   --> A'             
     e(  7 -  7) =      3.15683  eV     1   --> A''            
     e(  8 -  8) =      3.83842  eV     1   --> A'             

 **************************************************************************

 **************************************************************************

                    xk=(   0.11665,   0.22899,   0.00000  )

     Band symmetry, C_s (m)     point group:

     e(  1 -  1) =    -19.56540  eV     1   --> A'             
     e(  2 -  2) =     -8.32433  eV     1   --> A'             
     e(  3 -  3) =     -7.86305  eV     1   --> A''            
     e(  4 -  4) =     -7.22441  eV     1   --> A'             
     e(  5 -  5) =      1.94949  eV     1   --> A'             
     e(  6 -  6) =      2.51163  eV     1   --> A'             
     e(  7 -  7) =      3.09402  eV     1   --> A''            
     e(  8 -  8) =      3.67223  eV     1   --> A'             

 **************************************************************************

 **************************************************************************

                    xk=(   0.10832,   0.21264,   0.00000  )

     Band symmetry, C_s (m)     point group:

     e(  1 -  1) =    -19.66782  eV     1   --> A'             
     e(  2 -  2) =     -8.04283  eV     1   --> A'             
     e(  3 -  3) =     -7.97970  eV     1   --> A''            
     e(  4 -  4) =     -7.07262  eV     1   --> A'             
     e(  5 -  5) =      1.77244  eV     1   --> A'             
     e(  6 -  6) =      2.35508  eV     1   --> A'             
     e(  7 -  7) =      2.98873  eV     1   --> A''            
     e(  8 -  8) =      3.51721  eV     1   --> A'             

 **************************************************************************

 **************************************************************************

                    xk=(   0.09999,   0.19628,   0.00000  )

     Band symmetry, C_s (m)     point group:

     e(  1 -  1) =    -19.76323  eV     1   --> A'             
     e(  2 -  2) =     -8.08849  eV     1   --> A''            
     e(  3 -  3) =     -7.75795  eV     1   --> A'             
     e(  4 -  4) =     -6.92983  eV     1   --> A'             
     e(  5 -  5) =      1.58025  eV     1   --> A'             
     e(  6 -  6) =      2.20523  eV     1   --> A'             
     e(  7 -  7) =      2.87259  eV     1   --> A''            
     e(  8 -  8) =      3.37333  eV     1   --> A'             

 **************************************************************************

 **************************************************************************

                    xk=(   0.09166,   0.17992,   0.00000  )

     Band symmetry, C_s (m)     point group:

     e(  1 -  1) =    -19.85149  eV     1   --> A'             
     e(  2 -  2) =     -8.18922  eV     1   --> A''            
     e(  3 -  3) =     -7.47127  eV     1   --> A'             
     e(  4 -  4) =     -6.79625  eV     1   --> A'             
     e(  5 -  5) =      1.37203  eV     1   --> A'             
     e(  6 -  6) =      2.06410  eV     1   --> A'             
     e(  7 -  7) =      2.75763  eV     1   --> A''            
     e(  8 -  8) =      3.24064  eV     1   --> A'             

 **************************************************************************

 **************************************************************************

                    xk=(   0.08332,   0.16357,   0.00000  )

     Band symmetry, C_s (m)     point group:

     e(  1 -  1) =    -19.93246  eV     1   --> A'             
     e(  2 -  2) =     -8.28172  eV     1   --> A''            
     e(  3 -  3) =     -7.18509  eV     1   --> A'             
     e(  4 -  4) =     -6.67159  eV     1   --> A'             
     e(  5 -  5) =      1.14801  eV     1   --> A'             
     e(  6 -  6) =      1.93379  eV     1   --> A'             
     e(  7 -  7) =      2.64870  eV     1   --> A''            
     e(  8 -  8) =      3.11919  eV     1   --> A'             

 **************************************************************************

 **************************************************************************

                    xk=(   0.07499,   0.14721,   0.00000  )

     Band symmetry, C_s (m)     point group:

     e(  1 -  1) =    -20.00602  eV     1   --> A'             
     e(  2 -  2) =     -8.36583  eV     1   --> A''            
     e(  3 -  3) =     -6.90351  eV     1   --> A'             
     e(  4 -  4) =     -6.55411  eV     1   --> A'             
     e(  5 -  5) =      0.91025  eV     1   --> A'             
     e(  6 -  6) =      1.81570  eV     1   --> A'             
     e(  7 -  7) =      2.54799  eV     1   --> A''            
     e(  8 -  8) =      3.00910  eV     1   --> A'             

 **************************************************************************

 **************************************************************************

                    xk=(   0.06666,   0.13085,   0.00000  )

     Band symmetry, C_s (m)     point group:

     e(  1 -  1) =    -20.07208  eV     1   --> A'             
     e(  2 -  2) =     -8.44142  eV     1   --> A''            
     e(  3 -  3) =     -6.63854  eV     1   --> A'             
     e(  4 -  4) =     -6.43468  eV     1   --> A'             
     e(  5 -  5) =      0.66260  eV     1   --> A'             
     e(  6 -  6) =      1.71049  eV     1   --> A'             
     e(  7 -  7) =      2.45665  eV     1   --> A''            
     e(  8 -  8) =      2.91044  eV     1   --> A'             

 **************************************************************************

 **************************************************************************

                    xk=(   0.05833,   0.11450,   0.00000  )

     Band symmetry, C_s (m)     point group:

     e(  1 -  1) =    -20.13055  eV     1   --> A'             
     e(  2 -  2) =     -8.50837  eV     1   --> A''            
     e(  3 -  3) =     -6.43984  eV     1   --> A'             
     e(  4 -  4) =     -6.26718  eV     1   --> A'             
     e(  5 -  5) =      0.41047  eV     1   --> A'             
     e(  6 -  6) =      1.61826  eV     1   --> A'             
     e(  7 -  7) =      2.37532  eV     1   --> A''            
     e(  8 -  8) =      2.82329  eV     1   --> A'             

 **************************************************************************

 **************************************************************************

                    xk=(   0.04999,   0.09814,   0.00000  )

     Band symmetry, C_s (m)     point group:

     e(  1 -  1) =    -20.18137  eV     1   --> A'             
     e(  2 -  2) =     -8.56658  eV     1   --> A''            
     e(  3 -  3) =     -6.33144  eV     1   --> A'             
     e(  4 -  4) =     -6.03211  eV     1   --> A'             
     e(  5 -  5) =      0.16057  eV     1   --> A'             
     e(  6 -  6) =      1.53888  eV     1   --> A'             
     e(  7 -  7) =      2.30438  eV     1   --> A''            
     e(  8 -  8) =      2.74771  eV     1   --> A'             

 **************************************************************************

 **************************************************************************

                    xk=(   0.04166,   0.08178,   0.00000  )

     Band symmetry, C_s (m)     point group:

     e(  1 -  1) =    -20.22446  eV     1   --> A'             
     e(  2 -  2) =     -8.61598  eV     1   --> A''            
     e(  3 -  3) =     -6.25687  eV     1   --> A'             
     e(  4 -  4) =     -5.79173  eV     1   --> A'             
     e(  5 -  5) =     -0.07916  eV     1   --> A'             
     e(  6 -  6) =      1.47213  eV     1   --> A'             
     e(  7 -  7) =      2.24408  eV     1   --> A''            
     e(  8 -  8) =      2.68373  eV     1   --> A'             

 **************************************************************************

 **************************************************************************

                    xk=(   0.03333,   0.06543,   0.00000  )

     Band symmetry, C_s (m)     point group:

     e(  1 -  1) =    -20.25978  eV     1   --> A'             
     e(  2 -  2) =     -8.65649  eV     1   --> A''            
     e(  3 -  3) =     -6.19923  eV     1   --> A'             
     e(  4 -  4) =     -5.57028  eV     1   --> A'             
     e(  5 -  5) =     -0.29941  eV     1   --> A'             
     e(  6 -  6) =      1.41779  eV     1   --> A'             
     e(  7 -  7) =      2.19458  eV     1   --> A''            
     e(  8 -  8) =      2.63136  eV     1   --> A'             

 **************************************************************************

 **************************************************************************

                    xk=(   0.02500,   0.04907,   0.00000  )

     Band symmetry, C_s (m)     point group:

     e(  1 -  1) =    -20.28729  eV     1   --> A'             
     e(  2 -  2) =     -8.68805  eV     1   --> A''            
     e(  3 -  3) =     -6.15532  eV     1   --> A'             
     e(  4 -  4) =     -5.38009  eV     1   --> A'             
     e(  5 -  5) =     -0.48945  eV     1   --> A'             
     e(  6 -  6) =      1.37569  eV     1   --> A'             
     e(  7 -  7) =      2.15598  eV     1   --> A''            
     e(  8 -  8) =      2.59063  eV     1   --> A'             

 **************************************************************************

 **************************************************************************

                    xk=(   0.01666,   0.03271,   0.00000  )

     Band symmetry, C_s (m)     point group:

     e(  1 -  1) =    -20.30697  eV     1   --> A'             
     e(  2 -  2) =     -8.71063  eV     1   --> A''            
     e(  3 -  3) =     -6.12424  eV     1   --> A'             
     e(  4 -  4) =     -5.23251  eV     1   --> A'             
     e(  5 -  5) =     -0.63754  eV     1   --> A'             
     e(  6 -  6) =      1.34571  eV     1   --> A'             
     e(  7 -  7) =      2.12837  eV     1   --> A''            
     e(  8 -  8) =      2.56154  eV     1   --> A'             

 **************************************************************************

 **************************************************************************

                    xk=(   0.00833,   0.01636,   0.00000  )

     Band symmetry, C_s (m)     point group:

     e(  1 -  1) =    -20.31878  eV     1   --> A'             
     e(  2 -  2) =     -8.72418  eV     1   --> A''            
     e(  3 -  3) =     -6.10566  eV     1   --> A'             
     e(  4 -  4) =     -5.13838  eV     1   --> A'             
     e(  5 -  5) =     -0.73227  eV     1   --> A'             
     e(  6 -  6) =      1.32775  eV     1   --> A'             
     e(  7 -  7) =      2.11179  eV     1   --> A''            
     e(  8 -  8) =      2.54408  eV     1   --> A'             

 **************************************************************************

 **************************************************************************

                    xk=(   0.00000,   0.00000,   0.00000  )

     point group C_2h (2/m) 
     there are  4 classes
     the character table:

       E     C2    i     s_h  
A_g    1.00  1.00  1.00  1.00
B_g    1.00 -1.00  1.00 -1.00
A_u    1.00  1.00 -1.00 -1.00
B_u    1.00 -1.00 -1.00  1.00

     the symmetry operations in each class and the name of the first element:

     E        1
                                                                 
     C2       2
                                                                 
     i        3
                                                                 
     s_h      4
                                                                 

     Band symmetry, C_2h (2/m)  point group:

     e(  1 -  1) =    -20.32272  eV     1   --> A_g            
     e(  2 -  2) =     -8.72870  eV     1   --> A_u            
     e(  3 -  3) =     -6.09948  eV     1   --> A_g            
     e(  4 -  4) =     -5.10595  eV     1   --> A_g            
     e(  5 -  5) =     -0.76494  eV     1   --> B_u            
     e(  6 -  6) =      1.32177  eV     1   --> A_g            
     e(  7 -  7) =      2.10626  eV     1   --> A_u            
     e(  8 -  8) =      2.53826  eV     1   --> A_g            

 **************************************************************************

     BANDS        :     38.00s CPU     56.60s WALL


   This run was terminated on:  21:36:10  12Apr2026            

=------------------------------------------------------------------------------=
   JOB DONE.
=------------------------------------------------------------------------------=
