
     Program PWSCF v.7.5 starts on 13Apr2026 at  0:40:42 

     This program is part of the open-source Quantum ESPRESSO suite
     for quantum simulation of materials; please cite
         "P. Giannozzi et al., J. Phys.:Condens. Matter 21 395502 (2009);
         "P. Giannozzi et al., J. Phys.:Condens. Matter 29 465901 (2017);
         "P. Giannozzi et al., J. Chem. Phys. 152 154105 (2020);
          URL http://www.quantum-espresso.org", 
     in publications or presentations arising from this work. More details at
     http://www.quantum-espresso.org/quote

     Parallel version (MPI), running on     1 processors

     MPI processes distributed on     1 nodes
     421 MiB available memory on the printing compute node when the environment starts

     Waiting for input...
     Reading input from standard input

     Current dimensions of program PWSCF are:
     Max number of different atomic species (ntypx) = 10
     Max number of k-points (npk) =  40000
     Max angular momentum in pseudopotentials (lmaxx) =  4
     file C.pbe-n-kjpaw_psl.1.0.0.UPF: wavefunction(s)  2S 2P renormalized

     Atomic positions and unit cell read from directory:
     ./tmp/graphene_0p18_relax.save/

     Message from routine setup:
     using ibrav=0 with symmetry is DISCOURAGED, use correct ibrav instead

     Subspace diagonalization in iterative solution of the eigenvalue problem:
     a serial algorithm will be used


     G-vector sticks info
     --------------------
     sticks:   dense  smooth     PW     G-vecs:    dense   smooth      PW
     Sum        1125     565    165               171161    60521    9861

     Using Slab Decomposition



     bravais-lattice index     =            0
     lattice parameter (alat)  =       5.4855  a.u.
     unit-cell volume          =     625.9946 (a.u.)^3
     number of atoms/cell      =            2
     number of atomic types    =            1
     number of electrons       =         8.00
     number of Kohn-Sham states=            8
     kinetic-energy cutoff     =      80.0000  Ry
     charge density cutoff     =     640.0000  Ry
     Exchange-correlation= SLA  PW   PBX  PBC
                           (   1   4   3   4   0   0   0)

     celldm(1)=   5.485497  celldm(2)=   0.000000  celldm(3)=   0.000000
     celldm(4)=   0.000000  celldm(5)=   0.000000  celldm(6)=   0.000000

     crystal axes: (cart. coord. in units of alat)
               a(1) = (   1.000000   0.000000   0.000000 )  
               a(2) = (  -0.423729   0.733920   0.000000 )  
               a(3) = (   0.000000   0.000000   5.167425 )  

     reciprocal axes: (cart. coord. in units 2 pi/alat)
               b(1) = (  1.000000  0.577350 -0.000000 )  
               b(2) = (  0.000000  1.362547  0.000000 )  
               b(3) = (  0.000000 -0.000000  0.193520 )  


     PseudoPot. # 1 for C  read from file:
     ./pseudo/C.pbe-n-kjpaw_psl.1.0.0.UPF
     MD5 check sum: 5f16ad9a65e90284d1d834d4ab3b0f7d
     Pseudo is Projector augmented-wave + core cor, Zval =  4.0
     Generated using &quot;atomic&quot; code by A. Dal Corso  v.6.3
     Shape of augmentation charge: PSQ
     Using radial grid of 1073 points,  4 beta functions with: 
                l(1) =   0
                l(2) =   0
                l(3) =   1
                l(4) =   1
     Q(r) pseudized with 0 coefficients 


     atomic species   valence    mass     pseudopotential
     C                 4.00    12.01100     C ( 1.00)

      4 Sym. Ops., with inversion, found ( 2 have fractional translation)



   Cartesian axes

     site n.     atom                  positions (alat units)
         1        C      tau(   1) = (   0.0098327   0.0026634   0.0000000  )
         2        C      tau(   2) = (   0.0410143   0.4866166   0.0000000  )

     number of k points=   121  Marzari-Vanderbilt smearing, width (Ry)=  0.0200

     Number of k-points >= 100: set verbosity='high' to print them.

     Dense  grid:   171161 G-vectors     FFT dimensions: (  45,  45, 240)

     Smooth grid:    60521 G-vectors     FFT dimensions: (  36,  27, 162)

     Estimated max dynamical RAM per process >     176.47 MB

     The potential is recalculated from file :
     ./tmp/graphene_0p18_relax.save/charge-density


     negative rho (up, down):  2.978E-05 0.000E+00
     Starting wfcs are    8 randomized atomic wfcs
     Checking if some PAW data can be deallocated... 

     Band Structure Calculation
     Davidson diagonalization with overlap
     c_bands:  1 eigenvalues not converged

     ethr =  1.25E-10,  avg # of iterations = 49.2

     total cpu time spent up to now is      119.7 secs

     End of band structure calculation

     Number of k-points >= 100: set verbosity='high' to print the bands.

     Writing all to output data dir ./tmp/graphene_0p18_relax.save/ :
     XML data file, pseudopotentials, collected wavefunctions

     init_run     :      1.61s CPU      1.90s WALL (       1 calls)
     electrons    :    116.46s CPU    117.64s WALL (       1 calls)

     Called by init_run:
     wfcinit      :      0.00s CPU      0.00s WALL (       1 calls)
     potinit      :      0.53s CPU      0.63s WALL (       1 calls)
     hinit0       :      0.85s CPU      0.89s WALL (       1 calls)

     Called by electrons:
     c_bands      :    116.46s CPU    117.64s WALL (       1 calls)
     v_of_rho     :      0.18s CPU      0.26s WALL (       1 calls)
     newd         :      0.10s CPU      0.22s WALL (       1 calls)
     PAW_pot      :      0.06s CPU      0.06s WALL (       1 calls)

     Called by c_bands:
     init_us_2    :      0.07s CPU      0.16s WALL (     121 calls)
     cegterg      :    112.44s CPU    113.30s WALL (     354 calls)

     Called by *egterg:
     cdiaghg      :      0.61s CPU      0.62s WALL (    6071 calls)
     h_psi        :     77.59s CPU     78.20s WALL (    6425 calls)
     s_psi        :      5.31s CPU      5.36s WALL (    6425 calls)
     g_psi        :      0.68s CPU      0.69s WALL (    5950 calls)

     Called by h_psi:
     h_psi:calbec :      5.98s CPU      6.03s WALL (    6425 calls)
     vloc_psi     :     65.82s CPU     66.33s WALL (    6425 calls)
                                        0.00s GPU  (    6425 calls)
     add_vuspsi   :      5.37s CPU      5.42s WALL (    6425 calls)

     General routines
     calbec       :      5.94s CPU      6.01s WALL (    6425 calls)
     fft          :      0.75s CPU      0.76s WALL (      13 calls)
     ffts         :      0.28s CPU      0.27s WALL (       1 calls)
     fftw         :     55.29s CPU     55.74s WALL (   55840 calls)
     interpolate  :      0.29s CPU      0.28s WALL (       1 calls)
     davcio       :      0.10s CPU      0.29s WALL (     242 calls)

     Parallel routines

     PWSCF        :   1m58.25s CPU   1m59.97s WALL


   This run was terminated on:   0:42:42  13Apr2026            

=------------------------------------------------------------------------------=
   JOB DONE.
=------------------------------------------------------------------------------=
