
     Program PWSCF v.7.5 starts on 12Apr2026 at 21: 3: 3 

     This program is part of the open-source Quantum ESPRESSO suite
     for quantum simulation of materials; please cite
         "P. Giannozzi et al., J. Phys.:Condens. Matter 21 395502 (2009);
         "P. Giannozzi et al., J. Phys.:Condens. Matter 29 465901 (2017);
         "P. Giannozzi et al., J. Chem. Phys. 152 154105 (2020);
          URL http://www.quantum-espresso.org", 
     in publications or presentations arising from this work. More details at
     http://www.quantum-espresso.org/quote

     Parallel version (MPI), running on     1 processors

     MPI processes distributed on     1 nodes
     1817 MiB available memory on the printing compute node when the environment starts

     Waiting for input...
     Reading input from standard input

     Current dimensions of program PWSCF are:
     Max number of different atomic species (ntypx) = 10
     Max number of k-points (npk) =  40000
     Max angular momentum in pseudopotentials (lmaxx) =  4
     file C.pbe-n-kjpaw_psl.1.0.0.UPF: wavefunction(s)  2S 2P renormalized
     Message from routine setup:
     using ibrav=0 with symmetry is DISCOURAGED, use correct ibrav instead

     Subspace diagonalization in iterative solution of the eigenvalue problem:
     a serial algorithm will be used


     G-vector sticks info
     --------------------
     sticks:   dense  smooth     PW     G-vecs:    dense   smooth      PW
     Sum        1145     575    187               174149    61515   11385

     Using Slab Decomposition



     bravais-lattice index     =            0
     lattice parameter (alat)  =       5.5785  a.u.
     unit-cell volume          =     636.6047 (a.u.)^3
     number of atoms/cell      =            2
     number of atomic types    =            1
     number of electrons       =         8.00
     number of Kohn-Sham states=            8
     kinetic-energy cutoff     =      80.0000  Ry
     charge density cutoff     =     640.0000  Ry
     scf convergence threshold =      1.0E-08
     mixing beta               =       0.7000
     number of iterations used =            8  plain     mixing
     energy convergence thresh.=      1.0E-04
     force convergence thresh. =      1.0E-04
     Exchange-correlation= SLA  PW   PBX  PBC
                           (   1   4   3   4   0   0   0)
     nstep                     =           50


     celldm(1)=   5.578472  celldm(2)=   0.000000  celldm(3)=   0.000000
     celldm(4)=   0.000000  celldm(5)=   0.000000  celldm(6)=   0.000000

     crystal axes: (cart. coord. in units of alat)
               a(1) = (   1.000000   0.000000   0.000000 )  
               a(2) = (  -0.416667   0.721688   0.000000 )  
               a(3) = (   0.000000   0.000000   5.081301 )  

     reciprocal axes: (cart. coord. in units 2 pi/alat)
               b(1) = (  1.000000  0.577350 -0.000000 )  
               b(2) = (  0.000000  1.385641  0.000000 )  
               b(3) = (  0.000000 -0.000000  0.196800 )  


     PseudoPot. # 1 for C  read from file:
     ./pseudo/C.pbe-n-kjpaw_psl.1.0.0.UPF
     MD5 check sum: 5f16ad9a65e90284d1d834d4ab3b0f7d
     Pseudo is Projector augmented-wave + core cor, Zval =  4.0
     Generated using &quot;atomic&quot; code by A. Dal Corso  v.6.3
     Shape of augmentation charge: PSQ
     Using radial grid of 1073 points,  4 beta functions with: 
                l(1) =   0
                l(2) =   0
                l(3) =   1
                l(4) =   1
     Q(r) pseudized with 0 coefficients 


     atomic species   valence    mass     pseudopotential
     C                 4.00    12.01100     C ( 1.00)

      4 Sym. Ops., with inversion, found ( 2 have fractional translation)



   Cartesian axes

     site n.     atom                  positions (alat units)
         1        C      tau(   1) = (   0.0000000   0.0000000   0.0000000  )
         2        C      tau(   2) = (   0.0555551   0.4811254   0.0000000  )

     number of k points=   290  Marzari-Vanderbilt smearing, width (Ry)=  0.0200

     Number of k-points >= 100: set verbosity='high' to print them.

     Dense  grid:   174149 G-vectors     FFT dimensions: (  45,  45, 240)

     Smooth grid:    61515 G-vectors     FFT dimensions: (  36,  27, 162)

     Estimated max dynamical RAM per process >     506.84 MB

     Initial potential from superposition of free atoms

     starting charge       7.9999, renormalised to       8.0000

     negative rho (up, down):  2.419E-05 0.000E+00
     Starting wfcs are    8 randomized atomic wfcs
     Checking if some PAW data can be deallocated... 

     total cpu time spent up to now is       13.7 secs

     Self-consistent Calculation

     iteration #  1     ecut=    80.00 Ry     beta= 0.70
     Davidson diagonalization with overlap
     ethr =  1.00E-02,  avg # of iterations =  6.2

     negative rho (up, down):  2.068E-05 0.000E+00

     total cpu time spent up to now is       60.6 secs

     total energy              =     -36.74681036 Ry
     estimated scf accuracy    <       0.10681734 Ry

     iteration #  2     ecut=    80.00 Ry     beta= 0.70
     Davidson diagonalization with overlap
     ethr =  1.34E-03,  avg # of iterations =  3.4

     negative rho (up, down):  2.553E-05 0.000E+00

     total cpu time spent up to now is       92.1 secs

     total energy              =     -36.76088590 Ry
     estimated scf accuracy    <       0.00163523 Ry

     iteration #  3     ecut=    80.00 Ry     beta= 0.70
     Davidson diagonalization with overlap
     c_bands:  2 eigenvalues not converged
     c_bands:  1 eigenvalues not converged
     c_bands:  1 eigenvalues not converged
     c_bands:  1 eigenvalues not converged
     c_bands:  1 eigenvalues not converged
     c_bands:  1 eigenvalues not converged
     c_bands:  1 eigenvalues not converged
     c_bands:  1 eigenvalues not converged
     c_bands:  1 eigenvalues not converged
     c_bands:  1 eigenvalues not converged
     c_bands:  1 eigenvalues not converged
     c_bands:  1 eigenvalues not converged
     c_bands:  1 eigenvalues not converged
     c_bands:  1 eigenvalues not converged
     ethr =  2.04E-05,  avg # of iterations = 10.9

     negative rho (up, down):  2.920E-05 0.000E+00

     total cpu time spent up to now is      148.4 secs

     total energy              =     -36.76111413 Ry
     estimated scf accuracy    <       0.00014249 Ry

     iteration #  4     ecut=    80.00 Ry     beta= 0.70
     Davidson diagonalization with overlap
     ethr =  1.78E-06,  avg # of iterations =  4.0

     negative rho (up, down):  2.930E-05 0.000E+00

     total cpu time spent up to now is      180.9 secs

     total energy              =     -36.76112455 Ry
     estimated scf accuracy    <       0.00000135 Ry

     iteration #  5     ecut=    80.00 Ry     beta= 0.70
     Davidson diagonalization with overlap
     ethr =  1.68E-08,  avg # of iterations =  3.1

     negative rho (up, down):  2.929E-05 0.000E+00

     total cpu time spent up to now is      214.5 secs

     total energy              =     -36.76112557 Ry
     estimated scf accuracy    <       0.00000004 Ry

     iteration #  6     ecut=    80.00 Ry     beta= 0.70
     Davidson diagonalization with overlap
     ethr =  5.12E-10,  avg # of iterations =  2.7

     negative rho (up, down):  2.927E-05 0.000E+00

     total cpu time spent up to now is      248.6 secs

     End of self-consistent calculation

     Number of k-points >= 100: set verbosity='high' to print the bands.

     the Fermi energy is    -2.4761 ev

!    total energy              =     -36.76112559 Ry
     total all-electron energy =      -152.289320 Ry
     estimated scf accuracy    <          2.9E-09 Ry
     smearing contrib. (-TS)   =       0.00010285 Ry
     internal energy E=F+TS    =     -36.76122843 Ry

     The total energy is F=E-TS. E is the sum of the following terms:
     one-electron contribution =    -130.92662646 Ry
     hartree contribution      =      66.88396412 Ry
     xc contribution           =      -8.91529299 Ry
     ewald contribution        =      48.52097245 Ry
     one-center paw contrib.   =     -12.32424554 Ry

     convergence has been achieved in   6 iterations

     negative rho (up, down):  2.927E-05 0.000E+00

     Forces acting on atoms (cartesian axes, Ry/au):

     atom    1 type  1   force =     0.05539947    0.02998887    0.00000000
     atom    2 type  1   force =    -0.05539947   -0.02998887    0.00000000

     Total force =     0.089089     Total SCF correction =     0.000082

     BFGS Geometry Optimization
     Energy error            =      7.9E-03 Ry
     Gradient error          =      5.5E-02 Ry/Bohr

     number of scf cycles    =   1
     number of bfgs steps    =   0

     energy             new  =     -36.7611255851 Ry

     new trust radius        =       0.0629954992 bohr
     new conv_thr            =       0.0000000100 Ry


ATOMIC_POSITIONS (crystal)
C                0.0130346726        0.0074489582        0.0000000000
C                0.3202983274        0.6592180418        0.0000000000



     Writing config-only to output data dir ./tmp/graphene_0p20_relax.save/ :
     XML data file
     NEW-OLD atomic charge density approx. for the potential

     negative rho (up, down):  2.987E-05 0.000E+00

     total cpu time spent up to now is      254.3 secs

     Self-consistent Calculation

     iteration #  1     ecut=    80.00 Ry     beta= 0.70
     Davidson diagonalization with overlap
     c_bands:  1 eigenvalues not converged
     c_bands:  1 eigenvalues not converged
     c_bands:  1 eigenvalues not converged
     c_bands:  1 eigenvalues not converged
     c_bands:  1 eigenvalues not converged
     c_bands:  1 eigenvalues not converged
     c_bands:  1 eigenvalues not converged
     c_bands:  1 eigenvalues not converged
     c_bands:  1 eigenvalues not converged
     ethr =  1.00E-06,  avg # of iterations =  9.5

     negative rho (up, down):  3.014E-05 0.000E+00

     total cpu time spent up to now is      336.4 secs

     total energy              =     -36.76544647 Ry
     estimated scf accuracy    <       0.00066067 Ry

     iteration #  2     ecut=    80.00 Ry     beta= 0.70
     Davidson diagonalization with overlap
     c_bands:  1 eigenvalues not converged
     ethr =  8.26E-06,  avg # of iterations =  2.4

     negative rho (up, down):  2.997E-05 0.000E+00

     total cpu time spent up to now is      367.4 secs

     total energy              =     -36.76554813 Ry
     estimated scf accuracy    <       0.00001580 Ry

     iteration #  3     ecut=    80.00 Ry     beta= 0.70
     Davidson diagonalization with overlap
     c_bands:  1 eigenvalues not converged
     ethr =  1.98E-07,  avg # of iterations =  2.1

     negative rho (up, down):  3.003E-05 0.000E+00

     total cpu time spent up to now is      403.8 secs

     total energy              =     -36.76555043 Ry
     estimated scf accuracy    <       0.00000116 Ry

     iteration #  4     ecut=    80.00 Ry     beta= 0.70
     Davidson diagonalization with overlap
     ethr =  1.45E-08,  avg # of iterations =  2.0

     negative rho (up, down):  3.001E-05 0.000E+00

     total cpu time spent up to now is      450.4 secs

     total energy              =     -36.76555058 Ry
     estimated scf accuracy    <       0.00000002 Ry

     iteration #  5     ecut=    80.00 Ry     beta= 0.70
     Davidson diagonalization with overlap
     ethr =  2.48E-10,  avg # of iterations =  3.7

     negative rho (up, down):  2.999E-05 0.000E+00

     total cpu time spent up to now is      518.5 secs

     End of self-consistent calculation

     Number of k-points >= 100: set verbosity='high' to print the bands.

     the Fermi energy is    -2.5459 ev

!    total energy              =     -36.76555060 Ry
     total all-electron energy =      -152.293745 Ry
     estimated scf accuracy    <          6.0E-10 Ry
     smearing contrib. (-TS)   =       0.00013564 Ry
     internal energy E=F+TS    =     -36.76568624 Ry

     The total energy is F=E-TS. E is the sum of the following terms:
     one-electron contribution =    -131.24401642 Ry
     hartree contribution      =      67.04367108 Ry
     xc contribution           =      -8.94559885 Ry
     ewald contribution        =      48.70730054 Ry
     one-center paw contrib.   =     -12.32704258 Ry

     convergence has been achieved in   5 iterations

     negative rho (up, down):  2.999E-05 0.000E+00

     Forces acting on atoms (cartesian axes, Ry/au):

     atom    1 type  1   force =     0.01579913   -0.01409154    0.00000000
     atom    2 type  1   force =    -0.01579913    0.01409154    0.00000000

     Total force =     0.029939     Total SCF correction =     0.000030
     Energy error            =      4.4E-03 Ry
     Gradient error          =      1.6E-02 Ry/Bohr

     number of scf cycles    =   2
     number of bfgs steps    =   1

     energy             old  =     -36.7611255851 Ry
     energy             new  =     -36.7655505956 Ry

     CASE: energy            _new < energy            _old

     new trust radius        =       0.0276668641 bohr
     new conv_thr            =       0.0000000044 Ry


ATOMIC_POSITIONS (crystal)
C                0.0162447900        0.0044464349        0.0000000000
C                0.3170882100        0.6622205651        0.0000000000



     Writing config-only to output data dir ./tmp/graphene_0p20_relax.save/ :
     XML data file
     NEW-OLD atomic charge density approx. for the potential

     negative rho (up, down):  3.002E-05 0.000E+00

     total cpu time spent up to now is      526.7 secs

     Self-consistent Calculation

     iteration #  1     ecut=    80.00 Ry     beta= 0.70
     Davidson diagonalization with overlap
     c_bands:  1 eigenvalues not converged
     c_bands:  1 eigenvalues not converged
     c_bands:  1 eigenvalues not converged
     c_bands:  1 eigenvalues not converged
     ethr =  1.00E-06,  avg # of iterations =  7.5

     negative rho (up, down):  3.004E-05 0.000E+00

     total cpu time spent up to now is      633.4 secs

     total energy              =     -36.76592802 Ry
     estimated scf accuracy    <       0.00021580 Ry

     iteration #  2     ecut=    80.00 Ry     beta= 0.70
     Davidson diagonalization with overlap
     ethr =  2.70E-06,  avg # of iterations =  2.0

     negative rho (up, down):  3.004E-05 0.000E+00

     total cpu time spent up to now is      677.5 secs

     total energy              =     -36.76595347 Ry
     estimated scf accuracy    <       0.00000323 Ry

     iteration #  3     ecut=    80.00 Ry     beta= 0.70
     Davidson diagonalization with overlap
     ethr =  4.04E-08,  avg # of iterations =  2.6

     negative rho (up, down):  3.005E-05 0.000E+00

     total cpu time spent up to now is      727.0 secs

     total energy              =     -36.76595440 Ry
     estimated scf accuracy    <       0.00000024 Ry

     iteration #  4     ecut=    80.00 Ry     beta= 0.70
     Davidson diagonalization with overlap
     ethr =  2.95E-09,  avg # of iterations =  2.2

     negative rho (up, down):  3.004E-05 0.000E+00

     total cpu time spent up to now is      776.6 secs

     End of self-consistent calculation

     Number of k-points >= 100: set verbosity='high' to print the bands.

     the Fermi energy is    -2.5815 ev

!    total energy              =     -36.76595445 Ry
     total all-electron energy =      -152.294149 Ry
     estimated scf accuracy    <          1.5E-09 Ry
     smearing contrib. (-TS)   =       0.00014610 Ry
     internal energy E=F+TS    =     -36.76610055 Ry

     The total energy is F=E-TS. E is the sum of the following terms:
     one-electron contribution =    -131.28002342 Ry
     hartree contribution      =      67.05855392 Ry
     xc contribution           =      -8.94806896 Ry
     ewald contribution        =      48.73082465 Ry
     one-center paw contrib.   =     -12.32738674 Ry

     convergence has been achieved in   4 iterations

     negative rho (up, down):  3.004E-05 0.000E+00

     Forces acting on atoms (cartesian axes, Ry/au):

     atom    1 type  1   force =    -0.00347984    0.00660947    0.00000000
     atom    2 type  1   force =     0.00347984   -0.00660947    0.00000000

     Total force =     0.010564     Total SCF correction =     0.000047
     Energy error            =      4.0E-04 Ry
     Gradient error          =      6.6E-03 Ry/Bohr

     number of scf cycles    =   3
     number of bfgs steps    =   2

     energy             old  =     -36.7655505956 Ry
     energy             new  =     -36.7659544450 Ry

     CASE: energy            _new < energy            _old

     new trust radius        =       0.0058996231 bohr
     new conv_thr            =       0.0000000004 Ry


ATOMIC_POSITIONS (crystal)
C                0.0158898834        0.0054477967        0.0000000000
C                0.3174431166        0.6612192033        0.0000000000



     Writing config-only to output data dir ./tmp/graphene_0p20_relax.save/ :
     XML data file
     NEW-OLD atomic charge density approx. for the potential

     negative rho (up, down):  3.006E-05 0.000E+00

     total cpu time spent up to now is      784.4 secs

     Self-consistent Calculation

     iteration #  1     ecut=    80.00 Ry     beta= 0.70
     Davidson diagonalization with overlap
     ethr =  1.00E-06,  avg # of iterations =  3.4

     negative rho (up, down):  3.008E-05 0.000E+00

     total cpu time spent up to now is      848.4 secs

     total energy              =     -36.76599353 Ry
     estimated scf accuracy    <       0.00001392 Ry

     iteration #  2     ecut=    80.00 Ry     beta= 0.70
     Davidson diagonalization with overlap
     ethr =  1.74E-07,  avg # of iterations =  1.9

     negative rho (up, down):  3.007E-05 0.000E+00

     total cpu time spent up to now is      890.6 secs

     total energy              =     -36.76599536 Ry
     estimated scf accuracy    <       0.00000021 Ry

     iteration #  3     ecut=    80.00 Ry     beta= 0.70
     Davidson diagonalization with overlap
     ethr =  2.69E-09,  avg # of iterations =  3.0

     negative rho (up, down):  3.007E-05 0.000E+00

     total cpu time spent up to now is      945.3 secs

     total energy              =     -36.76599546 Ry
     estimated scf accuracy    <       0.00000001 Ry

     iteration #  4     ecut=    80.00 Ry     beta= 0.70
     Davidson diagonalization with overlap
     ethr =  1.87E-10,  avg # of iterations =  2.2

     negative rho (up, down):  3.007E-05 0.000E+00

     total cpu time spent up to now is      991.7 secs

     End of self-consistent calculation

     Number of k-points >= 100: set verbosity='high' to print the bands.

     the Fermi energy is    -2.5753 ev

!    total energy              =     -36.76599546 Ry
     total all-electron energy =      -152.294190 Ry
     estimated scf accuracy    <          4.0E-10 Ry
     smearing contrib. (-TS)   =       0.00014379 Ry
     internal energy E=F+TS    =     -36.76613925 Ry

     The total energy is F=E-TS. E is the sum of the following terms:
     one-electron contribution =    -131.28172717 Ry
     hartree contribution      =      67.06012636 Ry
     xc contribution           =      -8.94845035 Ry
     ewald contribution        =      48.73130768 Ry
     one-center paw contrib.   =     -12.32739578 Ry

     convergence has been achieved in   4 iterations

     negative rho (up, down):  3.007E-05 0.000E+00

     Forces acting on atoms (cartesian axes, Ry/au):

     atom    1 type  1   force =     0.00011626   -0.00003424    0.00000000
     atom    2 type  1   force =    -0.00011626    0.00003424    0.00000000

     Total force =     0.000171     Total SCF correction =     0.000032
     SCF correction compared to forces is large: reduce conv_thr to get better values
     Energy error            =      4.1E-05 Ry
     Gradient error          =      1.2E-04 Ry/Bohr

     number of scf cycles    =   4
     number of bfgs steps    =   3

     energy             old  =     -36.7659544450 Ry
     energy             new  =     -36.7659954609 Ry

     CASE: energy            _new < energy            _old

     new trust radius        =       0.0001532543 bohr
     new conv_thr            =            1.0E-10 Ry


ATOMIC_POSITIONS (crystal)
C                0.0159158490        0.0054444377        0.0000000000
C                0.3174171510        0.6612225623        0.0000000000



     Writing config-only to output data dir ./tmp/graphene_0p20_relax.save/ :
     XML data file
     NEW-OLD atomic charge density approx. for the potential

     negative rho (up, down):  3.007E-05 0.000E+00

     total cpu time spent up to now is      998.9 secs

     Self-consistent Calculation

     iteration #  1     ecut=    80.00 Ry     beta= 0.70
     Davidson diagonalization with overlap
     ethr =  1.00E-06,  avg # of iterations =  2.0

     Threshold (ethr) on eigenvalues was too large:
     Diagonalizing with lowered threshold

     Davidson diagonalization with overlap
     ethr =  4.12E-11,  avg # of iterations =  3.0

     negative rho (up, down):  3.007E-05 0.000E+00

     total cpu time spent up to now is     1098.3 secs

     total energy              =     -36.76599548 Ry
     estimated scf accuracy    <          4.9E-09 Ry

     iteration #  2     ecut=    80.00 Ry     beta= 0.70
     Davidson diagonalization with overlap
     ethr =  6.09E-11,  avg # of iterations =  2.0

     negative rho (up, down):  3.007E-05 0.000E+00

     total cpu time spent up to now is     1146.6 secs

     End of self-consistent calculation

     Number of k-points >= 100: set verbosity='high' to print the bands.

     the Fermi energy is    -2.5756 ev

!    total energy              =     -36.76599548 Ry
     total all-electron energy =      -152.294190 Ry
     estimated scf accuracy    <          8.5E-11 Ry
     smearing contrib. (-TS)   =       0.00014386 Ry
     internal energy E=F+TS    =     -36.76613934 Ry

     The total energy is F=E-TS. E is the sum of the following terms:
     one-electron contribution =    -131.28223866 Ry
     hartree contribution      =      67.06036585 Ry
     xc contribution           =      -8.94849489 Ry
     ewald contribution        =      48.73162894 Ry
     one-center paw contrib.   =     -12.32740057 Ry

     convergence has been achieved in   2 iterations

     negative rho (up, down):  3.007E-05 0.000E+00

     Forces acting on atoms (cartesian axes, Ry/au):

     atom    1 type  1   force =     0.00000337   -0.00000664    0.00000000
     atom    2 type  1   force =    -0.00000337    0.00000664    0.00000000

     Total force =     0.000011     Total SCF correction =     0.000005
     SCF correction compared to forces is large: reduce conv_thr to get better values
     Energy error            =      1.9E-08 Ry
     Gradient error          =      6.6E-06 Ry/Bohr

     bfgs converged in   5 scf cycles and   4 bfgs steps
     (criteria: energy <  1.0E-04 Ry, force <  1.0E-04 Ry/Bohr)

     End of BFGS Geometry Optimization

     Final energy             =     -36.7659954803 Ry

     File ./tmp/graphene_0p20_relax.bfgs deleted, as requested
Begin final coordinates

ATOMIC_POSITIONS (crystal)
C                0.0159158490        0.0054444377        0.0000000000
C                0.3174171510        0.6612225623        0.0000000000
End final coordinates



     Writing all to output data dir ./tmp/graphene_0p20_relax.save/ :
     XML data file, charge density, pseudopotentials, collected wavefunctions

     init_run     :     12.84s CPU     13.64s WALL (       1 calls)
     electrons    :   1085.70s CPU   1104.12s WALL (       5 calls)
     update_pot   :      1.60s CPU      1.94s WALL (       4 calls)
     forces       :     23.13s CPU     25.66s WALL (       5 calls)

     Called by init_run:
     wfcinit      :     10.98s CPU     11.43s WALL (       1 calls)
     potinit      :      0.62s CPU      0.73s WALL (       1 calls)
     hinit0       :      0.86s CPU      0.90s WALL (       1 calls)

     Called by electrons:
     c_bands      :    929.70s CPU    937.85s WALL (      22 calls)
     sum_band     :    145.02s CPU    151.14s WALL (      22 calls)
     v_of_rho     :      6.36s CPU      8.08s WALL (      26 calls)
     newd         :      3.83s CPU      7.52s WALL (      26 calls)
     PAW_pot      :      2.45s CPU      2.45s WALL (      30 calls)
     mix_rho      :      0.58s CPU      0.58s WALL (      22 calls)

     Called by c_bands:
     init_us_2    :     28.07s CPU     28.53s WALL (   15660 calls)
     cegterg      :    902.75s CPU    910.42s WALL (    6380 calls)

     Called by *egterg:
     cdiaghg      :      3.47s CPU      3.52s WALL (   28616 calls)
     h_psi        :    682.74s CPU    689.34s WALL (   30356 calls)
     s_psi        :     41.59s CPU     42.05s WALL (   30356 calls)
     g_psi        :      3.65s CPU      3.69s WALL (   23686 calls)

     Called by h_psi:
     h_psi:calbec :     44.30s CPU     44.63s WALL (   30356 calls)
     vloc_psi     :    594.38s CPU    600.32s WALL (   30356 calls)
                                        0.00s GPU  (   30356 calls)
     add_vuspsi   :     40.85s CPU     41.28s WALL (   30356 calls)

     General routines
     calbec       :     75.41s CPU     76.29s WALL (   43696 calls)
     fft          :      4.56s CPU      4.59s WALL (     388 calls)
     ffts         :      0.44s CPU      0.44s WALL (      48 calls)
     fftw         :    573.90s CPU    579.57s WALL (  357068 calls)
     interpolate  :      0.71s CPU      0.72s WALL (      26 calls)

     Parallel routines

     PWSCF        :  18m50.32s CPU  19m14.79s WALL


   This run was terminated on:  21:22:18  12Apr2026            

=------------------------------------------------------------------------------=
   JOB DONE.
=------------------------------------------------------------------------------=
