
     Program PWSCF v.7.5 starts on 12Apr2026 at 23:22:48 

     This program is part of the open-source Quantum ESPRESSO suite
     for quantum simulation of materials; please cite
         "P. Giannozzi et al., J. Phys.:Condens. Matter 21 395502 (2009);
         "P. Giannozzi et al., J. Phys.:Condens. Matter 29 465901 (2017);
         "P. Giannozzi et al., J. Chem. Phys. 152 154105 (2020);
          URL http://www.quantum-espresso.org", 
     in publications or presentations arising from this work. More details at
     http://www.quantum-espresso.org/quote

     Parallel version (MPI), running on     1 processors

     MPI processes distributed on     1 nodes
     1285 MiB available memory on the printing compute node when the environment starts

     Waiting for input...
     Reading input from standard input

     Current dimensions of program PWSCF are:
     Max number of different atomic species (ntypx) = 10
     Max number of k-points (npk) =  40000
     Max angular momentum in pseudopotentials (lmaxx) =  4
     file C.pbe-n-kjpaw_psl.1.0.0.UPF: wavefunction(s)  2S 2P renormalized

     Atomic positions and unit cell read from directory:
     ./tmp/graphene_0p08_relax.save/

     Message from routine setup:
     using ibrav=0 with symmetry is DISCOURAGED, use correct ibrav instead

     Subspace diagonalization in iterative solution of the eigenvalue problem:
     a serial algorithm will be used


     G-vector sticks info
     --------------------
     sticks:   dense  smooth     PW     G-vecs:    dense   smooth      PW
     Sum        1033     513    157               156757    55349    9157

     Using Slab Decomposition



     bravais-lattice index     =            0
     lattice parameter (alat)  =       5.0206  a.u.
     unit-cell volume          =     572.9442 (a.u.)^3
     number of atoms/cell      =            2
     number of atomic types    =            1
     number of electrons       =         8.00
     number of Kohn-Sham states=            8
     kinetic-energy cutoff     =      80.0000  Ry
     charge density cutoff     =     640.0000  Ry
     Exchange-correlation= SLA  PW   PBX  PBC
                           (   1   4   3   4   0   0   0)

     celldm(1)=   5.020624  celldm(2)=   0.000000  celldm(3)=   0.000000
     celldm(4)=   0.000000  celldm(5)=   0.000000  celldm(6)=   0.000000

     crystal axes: (cart. coord. in units of alat)
               a(1) = (   1.000000   0.000000   0.000000 )  
               a(2) = (  -0.462963   0.801875   0.000000 )  
               a(3) = (   0.000000   0.000000   5.645890 )  

     reciprocal axes: (cart. coord. in units 2 pi/alat)
               b(1) = (  1.000000  0.577350 -0.000000 )  
               b(2) = (  0.000000  1.247077  0.000000 )  
               b(3) = (  0.000000 -0.000000  0.177120 )  


     PseudoPot. # 1 for C  read from file:
     ./pseudo/C.pbe-n-kjpaw_psl.1.0.0.UPF
     MD5 check sum: 5f16ad9a65e90284d1d834d4ab3b0f7d
     Pseudo is Projector augmented-wave + core cor, Zval =  4.0
     Generated using &quot;atomic&quot; code by A. Dal Corso  v.6.3
     Shape of augmentation charge: PSQ
     Using radial grid of 1073 points,  4 beta functions with: 
                l(1) =   0
                l(2) =   0
                l(3) =   1
                l(4) =   1
     Q(r) pseudized with 0 coefficients 


     atomic species   valence    mass     pseudopotential
     C                 4.00    12.01100     C ( 1.00)

      4 Sym. Ops., with inversion, found ( 2 have fractional translation)



   Cartesian axes

     site n.     atom                  positions (alat units)
         1        C      tau(   1) = (   0.0000973  -0.0012915   0.0000000  )
         2        C      tau(   2) = (   0.0245935   0.5358752   0.0000000  )

     number of k points=   121  Marzari-Vanderbilt smearing, width (Ry)=  0.0200

     Number of k-points >= 100: set verbosity='high' to print them.

     Dense  grid:   156757 G-vectors     FFT dimensions: (  45,  45, 240)

     Smooth grid:    55349 G-vectors     FFT dimensions: (  30,  27, 162)

     Estimated max dynamical RAM per process >     164.16 MB

     The potential is recalculated from file :
     ./tmp/graphene_0p08_relax.save/charge-density


     negative rho (up, down):  3.015E-05 0.000E+00
     Starting wfcs are    8 randomized atomic wfcs
     Checking if some PAW data can be deallocated... 

     Band Structure Calculation
     Davidson diagonalization with overlap
     c_bands:  1 eigenvalues not converged

     ethr =  1.25E-10,  avg # of iterations = 52.5

     total cpu time spent up to now is      104.6 secs

     End of band structure calculation

     Number of k-points >= 100: set verbosity='high' to print the bands.

     Writing all to output data dir ./tmp/graphene_0p08_relax.save/ :
     XML data file, pseudopotentials, collected wavefunctions

     init_run     :      1.71s CPU      2.11s WALL (       1 calls)
     electrons    :    101.54s CPU    102.43s WALL (       1 calls)

     Called by init_run:
     wfcinit      :      0.00s CPU      0.00s WALL (       1 calls)
     potinit      :      0.57s CPU      0.70s WALL (       1 calls)
     hinit0       :      0.92s CPU      0.98s WALL (       1 calls)

     Called by electrons:
     c_bands      :    101.54s CPU    102.43s WALL (       1 calls)
     v_of_rho     :      0.21s CPU      0.33s WALL (       1 calls)
     newd         :      0.10s CPU      0.26s WALL (       1 calls)
     PAW_pot      :      0.08s CPU      0.08s WALL (       1 calls)

     Called by c_bands:
     init_us_2    :      0.06s CPU      0.14s WALL (     121 calls)
     cegterg      :     98.07s CPU     98.67s WALL (     373 calls)

     Called by *egterg:
     cdiaghg      :      0.65s CPU      0.66s WALL (    6469 calls)
     h_psi        :     65.51s CPU     65.91s WALL (    6842 calls)
     s_psi        :      5.06s CPU      5.12s WALL (    6842 calls)
     g_psi        :      0.63s CPU      0.64s WALL (    6348 calls)

     Called by h_psi:
     h_psi:calbec :      5.46s CPU      5.50s WALL (    6842 calls)
     vloc_psi     :     54.60s CPU     54.93s WALL (    6842 calls)
                                        0.00s GPU  (    6842 calls)
     add_vuspsi   :      5.09s CPU      5.14s WALL (    6842 calls)

     General routines
     calbec       :      5.42s CPU      5.47s WALL (    6842 calls)
     fft          :      0.80s CPU      0.81s WALL (      13 calls)
     ffts         :      0.25s CPU      0.25s WALL (       1 calls)
     fftw         :     46.83s CPU     47.13s WALL (   57238 calls)
     interpolate  :      0.27s CPU      0.27s WALL (       1 calls)
     davcio       :      0.12s CPU      0.27s WALL (     242 calls)

     Parallel routines

     PWSCF        :   1m43.39s CPU   1m44.94s WALL


   This run was terminated on:  23:24:33  12Apr2026            

=------------------------------------------------------------------------------=
   JOB DONE.
=------------------------------------------------------------------------------=
