
     Program PWSCF v.7.5 starts on 11Apr2026 at 12:28:36 

     This program is part of the open-source Quantum ESPRESSO suite
     for quantum simulation of materials; please cite
         "P. Giannozzi et al., J. Phys.:Condens. Matter 21 395502 (2009);
         "P. Giannozzi et al., J. Phys.:Condens. Matter 29 465901 (2017);
         "P. Giannozzi et al., J. Chem. Phys. 152 154105 (2020);
          URL http://www.quantum-espresso.org", 
     in publications or presentations arising from this work. More details at
     http://www.quantum-espresso.org/quote

     Parallel version (MPI), running on     1 processors

     MPI processes distributed on     1 nodes
     2383 MiB available memory on the printing compute node when the environment starts

     Waiting for input...
     Reading input from standard input

     Current dimensions of program PWSCF are:
     Max number of different atomic species (ntypx) = 10
     Max number of k-points (npk) =  40000
     Max angular momentum in pseudopotentials (lmaxx) =  4
     file C.pbe-n-kjpaw_psl.1.0.0.UPF: wavefunction(s)  2S 2P renormalized

     Subspace diagonalization in iterative solution of the eigenvalue problem:
     a serial algorithm will be used


     G-vector sticks info
     --------------------
     sticks:   dense  smooth     PW     G-vecs:    dense   smooth      PW
     Sum         595     301     91                70539    25049    4457

     Using Slab Decomposition



     bravais-lattice index     =            4
     lattice parameter (alat)  =       4.6500  a.u.
     unit-cell volume          =     522.4452 (a.u.)^3
     number of atoms/cell      =            2
     number of atomic types    =            1
     number of electrons       =         8.00
     number of Kohn-Sham states=            8
     kinetic-energy cutoff     =      50.0000  Ry
     charge density cutoff     =     400.0000  Ry
     scf convergence threshold =      1.0E-08
     mixing beta               =       0.7000
     number of iterations used =            8  plain     mixing
     Exchange-correlation= SLA  PW   PBX  PBC
                           (   1   4   3   4   0   0   0)

     celldm(1)=   4.650000  celldm(2)=   0.000000  celldm(3)=   6.000000
     celldm(4)=   0.000000  celldm(5)=   0.000000  celldm(6)=   0.000000

     crystal axes: (cart. coord. in units of alat)
               a(1) = (   1.000000   0.000000   0.000000 )  
               a(2) = (  -0.500000   0.866025   0.000000 )  
               a(3) = (   0.000000   0.000000   6.000000 )  

     reciprocal axes: (cart. coord. in units 2 pi/alat)
               b(1) = (  1.000000  0.577350 -0.000000 )  
               b(2) = (  0.000000  1.154701  0.000000 )  
               b(3) = (  0.000000 -0.000000  0.166667 )  


     PseudoPot. # 1 for C  read from file:
     ./pseudo/C.pbe-n-kjpaw_psl.1.0.0.UPF
     MD5 check sum: 5f16ad9a65e90284d1d834d4ab3b0f7d
     Pseudo is Projector augmented-wave + core cor, Zval =  4.0
     Generated using &quot;atomic&quot; code by A. Dal Corso  v.6.3
     Shape of augmentation charge: PSQ
     Using radial grid of 1073 points,  4 beta functions with: 
                l(1) =   0
                l(2) =   0
                l(3) =   1
                l(4) =   1
     Q(r) pseudized with 0 coefficients 


     atomic species   valence    mass     pseudopotential
     C                 4.00    12.01100     C ( 1.00)

     24 Sym. Ops., with inversion, found (12 have fractional translation)



   Cartesian axes

     site n.     atom                  positions (alat units)
         1        C      tau(   1) = (   0.0000000   0.0000000   0.0000000  )
         2        C      tau(   2) = (  -0.0000005   0.5773506   0.0000000  )

     number of k points=   217  Marzari-Vanderbilt smearing, width (Ry)=  0.0200

     Number of k-points >= 100: set verbosity='high' to print them.

     Dense  grid:    70539 G-vectors     FFT dimensions: (  30,  30, 180)

     Smooth grid:    25049 G-vectors     FFT dimensions: (  24,  24, 125)

     Estimated max dynamical RAM per process >     172.76 MB

     Check: negative core charge=   -0.000003

     Initial potential from superposition of free atoms

     starting charge       7.9999, renormalised to       8.0000

     negative rho (up, down):  6.645E-05 0.000E+00
     Starting wfcs are    8 randomized atomic wfcs
     Checking if some PAW data can be deallocated... 

     total cpu time spent up to now is        3.7 secs

     Self-consistent Calculation

     iteration #  1     ecut=    50.00 Ry     beta= 0.70
     Davidson diagonalization with overlap
     ethr =  1.00E-02,  avg # of iterations =  5.5

     negative rho (up, down):  7.279E-05 0.000E+00

     total cpu time spent up to now is       16.8 secs

     total energy              =     -36.85864387 Ry
     estimated scf accuracy    <       0.19792736 Ry

     iteration #  2     ecut=    50.00 Ry     beta= 0.70
     Davidson diagonalization with overlap
     ethr =  2.47E-03,  avg # of iterations =  3.5

     negative rho (up, down):  8.151E-05 0.000E+00

     total cpu time spent up to now is       27.2 secs

     total energy              =     -36.88684680 Ry
     estimated scf accuracy    <       0.00208593 Ry

     iteration #  3     ecut=    50.00 Ry     beta= 0.70
     Davidson diagonalization with overlap
     ethr =  2.61E-05,  avg # of iterations = 10.1

     negative rho (up, down):  8.915E-05 0.000E+00

     total cpu time spent up to now is       42.1 secs

     total energy              =     -36.88710345 Ry
     estimated scf accuracy    <       0.00015675 Ry

     iteration #  4     ecut=    50.00 Ry     beta= 0.70
     Davidson diagonalization with overlap
     ethr =  1.96E-06,  avg # of iterations =  4.0

     negative rho (up, down):  8.963E-05 0.000E+00

     total cpu time spent up to now is       50.7 secs

     total energy              =     -36.88711433 Ry
     estimated scf accuracy    <       0.00000133 Ry

     iteration #  5     ecut=    50.00 Ry     beta= 0.70
     Davidson diagonalization with overlap
     ethr =  1.67E-08,  avg # of iterations =  3.1

     negative rho (up, down):  8.956E-05 0.000E+00

     total cpu time spent up to now is       61.0 secs

     total energy              =     -36.88711520 Ry
     estimated scf accuracy    <       0.00000003 Ry

     iteration #  6     ecut=    50.00 Ry     beta= 0.70
     Davidson diagonalization with overlap
     ethr =  3.85E-10,  avg # of iterations =  2.5

     negative rho (up, down):  8.953E-05 0.000E+00

     total cpu time spent up to now is       68.8 secs

     End of self-consistent calculation

     Number of k-points >= 100: set verbosity='high' to print the bands.

     the Fermi energy is    -1.7365 ev

!    total energy              =     -36.88711522 Ry
     total all-electron energy =      -152.415310 Ry
     estimated scf accuracy    <          2.2E-10 Ry
     smearing contrib. (-TS)   =       0.00004947 Ry
     internal energy E=F+TS    =     -36.88716469 Ry

     The total energy is F=E-TS. E is the sum of the following terms:
     one-electron contribution =    -154.31065594 Ry
     hartree contribution      =      78.79319018 Ry
     xc contribution           =      -9.28332646 Ry
     ewald contribution        =      60.24775952 Ry
     one-center paw contrib.   =     -12.33413199 Ry

     convergence has been achieved in   6 iterations

     Writing all to output data dir ./tmp/graphene.save/ :
     XML data file, charge density, pseudopotentials, collected wavefunctions

     init_run     :      3.74s CPU      3.69s WALL (       1 calls)
     electrons    :     63.48s CPU     65.06s WALL (       1 calls)

     Called by init_run:
     wfcinit      :      2.61s CPU      2.49s WALL (       1 calls)
     potinit      :      0.33s CPU      0.39s WALL (       1 calls)
     hinit0       :      0.68s CPU      0.62s WALL (       1 calls)

     Called by electrons:
     c_bands      :     55.37s CPU     53.11s WALL (       6 calls)
     sum_band     :      6.98s CPU     10.48s WALL (       6 calls)
     v_of_rho     :      0.46s CPU      0.62s WALL (       7 calls)
     newd         :      0.28s CPU      0.57s WALL (       7 calls)
     PAW_pot      :      0.48s CPU      0.48s WALL (       7 calls)
     mix_rho      :      0.04s CPU      0.04s WALL (       6 calls)

     Called by c_bands:
     init_us_2    :      1.31s CPU      1.27s WALL (    2821 calls)
     cegterg      :     53.77s CPU     51.56s WALL (    1302 calls)

     Called by *egterg:
     cdiaghg      :      0.73s CPU      0.71s WALL (    7539 calls)
     h_psi        :     39.56s CPU     37.95s WALL (    7756 calls)
     s_psi        :      2.87s CPU      2.76s WALL (    7756 calls)
     g_psi        :      0.28s CPU      0.27s WALL (    6237 calls)

     Called by h_psi:
     h_psi:calbec :      2.97s CPU      2.84s WALL (    7756 calls)
     vloc_psi     :     33.43s CPU     32.09s WALL (    7756 calls)
                                        0.00s GPU  (    7756 calls)
     add_vuspsi   :      2.90s CPU      2.78s WALL (    7756 calls)

     General routines
     calbec       :      3.79s CPU      3.66s WALL (    9058 calls)
     fft          :      0.70s CPU      0.66s WALL (      89 calls)
     ffts         :      0.19s CPU      0.17s WALL (      13 calls)
     fftw         :     32.60s CPU     33.01s WALL (   79294 calls)
     interpolate  :      0.20s CPU      0.19s WALL (       7 calls)

     Parallel routines

     PWSCF        :   1m 7.31s CPU   1m 9.03s WALL


   This run was terminated on:  12:29:45  11Apr2026            

=------------------------------------------------------------------------------=
   JOB DONE.
=------------------------------------------------------------------------------=
