
     Program PWSCF v.7.5 starts on 11Apr2026 at 12:45:14 

     This program is part of the open-source Quantum ESPRESSO suite
     for quantum simulation of materials; please cite
         "P. Giannozzi et al., J. Phys.:Condens. Matter 21 395502 (2009);
         "P. Giannozzi et al., J. Phys.:Condens. Matter 29 465901 (2017);
         "P. Giannozzi et al., J. Chem. Phys. 152 154105 (2020);
          URL http://www.quantum-espresso.org", 
     in publications or presentations arising from this work. More details at
     http://www.quantum-espresso.org/quote

     Parallel version (MPI), running on     1 processors

     MPI processes distributed on     1 nodes
     2394 MiB available memory on the printing compute node when the environment starts

     Waiting for input...
     Reading input from standard input

     Current dimensions of program PWSCF are:
     Max number of different atomic species (ntypx) = 10
     Max number of k-points (npk) =  40000
     Max angular momentum in pseudopotentials (lmaxx) =  4
     file C.pbe-n-kjpaw_psl.1.0.0.UPF: wavefunction(s)  2S 2P renormalized

     Subspace diagonalization in iterative solution of the eigenvalue problem:
     a serial algorithm will be used


     G-vector sticks info
     --------------------
     sticks:   dense  smooth     PW     G-vecs:    dense   smooth      PW
     Sum         721     361    109                92871    32909    5681

     Using Slab Decomposition



     bravais-lattice index     =            4
     lattice parameter (alat)  =       4.6500  a.u.
     unit-cell volume          =     522.4452 (a.u.)^3
     number of atoms/cell      =            2
     number of atomic types    =            1
     number of electrons       =         8.00
     number of Kohn-Sham states=            8
     kinetic-energy cutoff     =      60.0000  Ry
     charge density cutoff     =     480.0000  Ry
     scf convergence threshold =      1.0E-08
     mixing beta               =       0.7000
     number of iterations used =            8  plain     mixing
     Exchange-correlation= SLA  PW   PBX  PBC
                           (   1   4   3   4   0   0   0)

     celldm(1)=   4.650000  celldm(2)=   0.000000  celldm(3)=   6.000000
     celldm(4)=   0.000000  celldm(5)=   0.000000  celldm(6)=   0.000000

     crystal axes: (cart. coord. in units of alat)
               a(1) = (   1.000000   0.000000   0.000000 )  
               a(2) = (  -0.500000   0.866025   0.000000 )  
               a(3) = (   0.000000   0.000000   6.000000 )  

     reciprocal axes: (cart. coord. in units 2 pi/alat)
               b(1) = (  1.000000  0.577350 -0.000000 )  
               b(2) = (  0.000000  1.154701  0.000000 )  
               b(3) = (  0.000000 -0.000000  0.166667 )  


     PseudoPot. # 1 for C  read from file:
     ./pseudo/C.pbe-n-kjpaw_psl.1.0.0.UPF
     MD5 check sum: 5f16ad9a65e90284d1d834d4ab3b0f7d
     Pseudo is Projector augmented-wave + core cor, Zval =  4.0
     Generated using &quot;atomic&quot; code by A. Dal Corso  v.6.3
     Shape of augmentation charge: PSQ
     Using radial grid of 1073 points,  4 beta functions with: 
                l(1) =   0
                l(2) =   0
                l(3) =   1
                l(4) =   1
     Q(r) pseudized with 0 coefficients 


     atomic species   valence    mass     pseudopotential
     C                 4.00    12.01100     C ( 1.00)

     24 Sym. Ops., with inversion, found (12 have fractional translation)



   Cartesian axes

     site n.     atom                  positions (alat units)
         1        C      tau(   1) = (   0.0000000   0.0000000   0.0000000  )
         2        C      tau(   2) = (  -0.0000005   0.5773506   0.0000000  )

     number of k points=    61  Marzari-Vanderbilt smearing, width (Ry)=  0.0200
                       cart. coord. in units 2pi/alat
        k(    1) = (   0.0000000   0.0000000   0.0000000), wk =   0.0034722
        k(    2) = (   0.0000000   0.0481125   0.0000000), wk =   0.0208333
        k(    3) = (   0.0000000   0.0962250   0.0000000), wk =   0.0208333
        k(    4) = (   0.0000000   0.1443376   0.0000000), wk =   0.0208333
        k(    5) = (   0.0000000   0.1924501   0.0000000), wk =   0.0208333
        k(    6) = (   0.0000000   0.2405626   0.0000000), wk =   0.0208333
        k(    7) = (   0.0000000   0.2886751   0.0000000), wk =   0.0208333
        k(    8) = (   0.0000000   0.3367877   0.0000000), wk =   0.0208333
        k(    9) = (   0.0000000   0.3849002   0.0000000), wk =   0.0208333
        k(   10) = (   0.0000000   0.4330127   0.0000000), wk =   0.0208333
        k(   11) = (   0.0000000   0.4811252   0.0000000), wk =   0.0208333
        k(   12) = (   0.0000000   0.5292377   0.0000000), wk =   0.0208333
        k(   13) = (   0.0000000  -0.5773503   0.0000000), wk =   0.0104167
        k(   14) = (   0.0416667   0.0721688   0.0000000), wk =   0.0208333
        k(   15) = (   0.0416667   0.1202813   0.0000000), wk =   0.0416667
        k(   16) = (   0.0416667   0.1683938   0.0000000), wk =   0.0416667
        k(   17) = (   0.0416667   0.2165064   0.0000000), wk =   0.0416667
        k(   18) = (   0.0416667   0.2646189   0.0000000), wk =   0.0416667
        k(   19) = (   0.0416667   0.3127314   0.0000000), wk =   0.0416667
        k(   20) = (   0.0416667   0.3608439   0.0000000), wk =   0.0416667
        k(   21) = (   0.0416667   0.4089564   0.0000000), wk =   0.0416667
        k(   22) = (   0.0416667   0.4570690   0.0000000), wk =   0.0416667
        k(   23) = (   0.0416667   0.5051815   0.0000000), wk =   0.0416667
        k(   24) = (   0.0416667   0.5532940   0.0000000), wk =   0.0416667
        k(   25) = (   0.0833333   0.1443376   0.0000000), wk =   0.0208333
        k(   26) = (   0.0833333   0.1924501   0.0000000), wk =   0.0416667
        k(   27) = (   0.0833333   0.2405626   0.0000000), wk =   0.0416667
        k(   28) = (   0.0833333   0.2886751   0.0000000), wk =   0.0416667
        k(   29) = (   0.0833333   0.3367877   0.0000000), wk =   0.0416667
        k(   30) = (   0.0833333   0.3849002   0.0000000), wk =   0.0416667
        k(   31) = (   0.0833333   0.4330127   0.0000000), wk =   0.0416667
        k(   32) = (   0.0833333   0.4811252   0.0000000), wk =   0.0416667
        k(   33) = (   0.0833333   0.5292377   0.0000000), wk =   0.0416667
        k(   34) = (   0.0833333   0.5773503   0.0000000), wk =   0.0208333
        k(   35) = (   0.1250000   0.2165064   0.0000000), wk =   0.0208333
        k(   36) = (   0.1250000   0.2646189   0.0000000), wk =   0.0416667
        k(   37) = (   0.1250000   0.3127314   0.0000000), wk =   0.0416667
        k(   38) = (   0.1250000   0.3608439   0.0000000), wk =   0.0416667
        k(   39) = (   0.1250000   0.4089564   0.0000000), wk =   0.0416667
        k(   40) = (   0.1250000   0.4570690   0.0000000), wk =   0.0416667
        k(   41) = (   0.1250000   0.5051815   0.0000000), wk =   0.0416667
        k(   42) = (   0.1250000   0.5532940   0.0000000), wk =   0.0416667
        k(   43) = (   0.1666667   0.2886751   0.0000000), wk =   0.0208333
        k(   44) = (   0.1666667   0.3367877   0.0000000), wk =   0.0416667
        k(   45) = (   0.1666667   0.3849002   0.0000000), wk =   0.0416667
        k(   46) = (   0.1666667   0.4330127   0.0000000), wk =   0.0416667
        k(   47) = (   0.1666667   0.4811252   0.0000000), wk =   0.0416667
        k(   48) = (   0.1666667   0.5292377   0.0000000), wk =   0.0416667
        k(   49) = (   0.1666667   0.5773503   0.0000000), wk =   0.0208333
        k(   50) = (   0.2083333   0.3608439   0.0000000), wk =   0.0208333
        k(   51) = (   0.2083333   0.4089564   0.0000000), wk =   0.0416667
        k(   52) = (   0.2083333   0.4570690   0.0000000), wk =   0.0416667
        k(   53) = (   0.2083333   0.5051815   0.0000000), wk =   0.0416667
        k(   54) = (   0.2083333   0.5532940   0.0000000), wk =   0.0416667
        k(   55) = (   0.2500000   0.4330127   0.0000000), wk =   0.0208333
        k(   56) = (   0.2500000   0.4811252   0.0000000), wk =   0.0416667
        k(   57) = (   0.2500000   0.5292377   0.0000000), wk =   0.0416667
        k(   58) = (   0.2500000   0.5773503   0.0000000), wk =   0.0208333
        k(   59) = (   0.2916667   0.5051815   0.0000000), wk =   0.0208333
        k(   60) = (   0.2916667   0.5532940   0.0000000), wk =   0.0416667
        k(   61) = (   0.3333333   0.5773503   0.0000000), wk =   0.0069444

     Dense  grid:    92871 G-vectors     FFT dimensions: (  36,  36, 200)

     Smooth grid:    32909 G-vectors     FFT dimensions: (  24,  24, 144)

     Estimated max dynamical RAM per process >     152.26 MB

     Check: negative core charge=   -0.000001

     Initial potential from superposition of free atoms

     starting charge       7.9999, renormalised to       8.0000

     negative rho (up, down):  3.997E-05 0.000E+00
     Starting wfcs are    8 randomized atomic wfcs
     Checking if some PAW data can be deallocated... 

     total cpu time spent up to now is        2.7 secs

     Self-consistent Calculation

     iteration #  1     ecut=    60.00 Ry     beta= 0.70
     Davidson diagonalization with overlap
     ethr =  1.00E-02,  avg # of iterations =  5.4

     negative rho (up, down):  5.580E-05 0.000E+00

     total cpu time spent up to now is        7.1 secs

     total energy              =     -36.85988805 Ry
     estimated scf accuracy    <       0.19614414 Ry

     iteration #  2     ecut=    60.00 Ry     beta= 0.70
     Davidson diagonalization with overlap
     ethr =  2.45E-03,  avg # of iterations =  3.8

     negative rho (up, down):  6.824E-05 0.000E+00

     total cpu time spent up to now is       12.1 secs

     total energy              =     -36.88719029 Ry
     estimated scf accuracy    <       0.00200725 Ry

     iteration #  3     ecut=    60.00 Ry     beta= 0.70
     Davidson diagonalization with overlap
     c_bands:  1 eigenvalues not converged
     ethr =  2.51E-05,  avg # of iterations = 10.0

     negative rho (up, down):  7.703E-05 0.000E+00

     total cpu time spent up to now is       17.9 secs

     total energy              =     -36.88747480 Ry
     estimated scf accuracy    <       0.00015428 Ry

     iteration #  4     ecut=    60.00 Ry     beta= 0.70
     Davidson diagonalization with overlap
     c_bands:  1 eigenvalues not converged
     ethr =  1.93E-06,  avg # of iterations =  4.6

     negative rho (up, down):  7.801E-05 0.000E+00

     total cpu time spent up to now is       21.4 secs

     total energy              =     -36.88748745 Ry
     estimated scf accuracy    <       0.00000160 Ry

     iteration #  5     ecut=    60.00 Ry     beta= 0.70
     Davidson diagonalization with overlap
     ethr =  2.00E-08,  avg # of iterations =  3.1

     negative rho (up, down):  7.811E-05 0.000E+00

     total cpu time spent up to now is       24.7 secs

     total energy              =     -36.88748841 Ry
     estimated scf accuracy    <       0.00000004 Ry

     iteration #  6     ecut=    60.00 Ry     beta= 0.70
     Davidson diagonalization with overlap
     ethr =  5.61E-10,  avg # of iterations =  2.7

     negative rho (up, down):  7.815E-05 0.000E+00

     total cpu time spent up to now is       27.9 secs

     End of self-consistent calculation

          k = 0.0000 0.0000 0.0000 (  4101 PWs)   bands (ev):

   -21.2341  -9.3191  -4.7042  -4.7041   1.5485   2.4439   2.8436   4.8307

          k = 0.0000 0.0481 0.0000 (  4078 PWs)   bands (ev):

   -21.1930  -9.2697  -4.8737  -4.7940   1.6045   2.5004   2.9005   4.8868

          k = 0.0000 0.0962 0.0000 (  4106 PWs)   bands (ev):

   -21.0696  -9.1221  -5.3568  -5.0451   1.7726   2.6698   3.0712   5.0546

          k = 0.0000 0.1443 0.0000 (  4092 PWs)   bands (ev):

   -20.8643  -8.8770  -6.0901  -5.4120   2.0528   2.9519   3.3558   5.3341

          k = 0.0000 0.1925 0.0000 (  4102 PWs)   bands (ev):

   -20.5777  -8.5362  -7.0003  -5.8430   2.4450   3.3460   3.7540   5.7233

          k = 0.0000 0.2406 0.0000 (  4112 PWs)   bands (ev):

   -20.2107  -8.1028  -8.0226  -6.2932   2.9487   3.8504   4.2659   6.2068

          k = 0.0000 0.2887 0.0000 (  4124 PWs)   bands (ev):

   -19.7644  -9.1066  -7.5810  -6.7287   3.5634   4.4542   4.8910   5.6472

          k = 0.0000 0.3368 0.0000 (  4096 PWs)   bands (ev):

   -19.2404 -10.2145  -7.1253  -6.9780   4.2877   4.4246   5.2537   5.6254

          k = 0.0000 0.3849 0.0000 (  4108 PWs)   bands (ev):

   -18.6415 -11.3185  -7.4667  -6.3065   3.2837   5.1171   6.0657   6.1212

          k = 0.0000 0.4330 0.0000 (  4112 PWs)   bands (ev):

   -17.9716 -12.3965  -7.7416  -5.5895   2.1572   5.9046   6.1571   7.0097

          k = 0.0000 0.4811 0.0000 (  4118 PWs)   bands (ev):

   -17.2397 -13.4275  -7.9426  -4.8763   1.1359   5.8750   7.1371   8.0610

          k = 0.0000 0.5292 0.0000 (  4116 PWs)   bands (ev):

   -16.4776 -14.3720  -8.0649  -4.2804   0.3494   5.8173   8.2831   9.2101

          k = 0.0000-0.5774 0.0000 (  4128 PWs)   bands (ev):

   -15.9653 -14.9457  -8.1060  -4.0267   0.0312   5.7970   9.4558   9.6024

          k = 0.0417 0.0722 0.0000 (  4101 PWs)   bands (ev):

   -21.1107  -9.1712  -5.1908  -4.9738   1.7166   2.6134   3.0143   4.9988

          k = 0.0417 0.1203 0.0000 (  4099 PWs)   bands (ev):

   -20.9464  -8.9748  -5.7779  -5.3042   1.9408   2.8391   3.2419   5.2225

          k = 0.0417 0.1684 0.0000 (  4100 PWs)   bands (ev):

   -20.7005  -8.6819  -6.5783  -5.7249   2.2770   3.1773   3.5834   5.5571

          k = 0.0417 0.2165 0.0000 (  4104 PWs)   bands (ev):

   -20.3736  -8.2946  -7.5278  -6.1829   2.7251   3.6269   4.0386   5.9990

          k = 0.0417 0.2646 0.0000 (  4106 PWs)   bands (ev):

   -19.9669  -8.5690  -7.8167  -6.6380   3.2844   4.1843   4.6073   6.1269

          k = 0.0417 0.3127 0.0000 (  4109 PWs)   bands (ev):

   -19.4818  -9.6568  -7.2536  -7.0624   3.9543   4.7605   5.1205   5.2885

          k = 0.0417 0.3608 0.0000 (  4114 PWs)   bands (ev):

   -18.9203 -10.7575  -7.4368  -6.6147   3.8337   4.7328   5.6750   6.0712

          k = 0.0417 0.4090 0.0000 (  4113 PWs)   bands (ev):

   -18.2856 -11.8452  -7.7483  -5.9167   2.6935   5.6100   6.2532   6.5611

          k = 0.0417 0.4571 0.0000 (  4118 PWs)   bands (ev):

   -17.5836 -12.8986  -7.9883  -5.1926   1.6144   6.0933   6.6538   7.5583

          k = 0.0417 0.5052 0.0000 (  4111 PWs)   bands (ev):

   -16.8298 -13.8919  -8.1511  -4.5165   0.6918   6.0282   7.7378   8.6566

          k = 0.0417 0.5533 0.0000 (  4113 PWs)   bands (ev):

   -16.1082 -14.7347  -8.2333  -4.0566   0.1058   5.9886   8.9308   9.8377

          k = 0.0833 0.1443 0.0000 (  4105 PWs)   bands (ev):

   -20.7414  -8.7305  -6.3937  -5.7272   2.2211   3.1210   3.5265   5.5015

          k = 0.0833 0.1925 0.0000 (  4095 PWs)   bands (ev):

   -20.4553  -8.3909  -7.1822  -6.2269   2.6133   3.5150   3.9250   5.8910

          k = 0.0833 0.2406 0.0000 (  4098 PWs)   bands (ev):

   -20.0888  -8.1095  -7.9588  -6.7316   3.1173   4.0195   4.4372   6.3587

          k = 0.0833 0.2887 0.0000 (  4097 PWs)   bands (ev):

   -19.6433  -9.1273  -7.4386  -7.2035   3.7322   4.6234   5.0628   5.4476

          k = 0.0833 0.3368 0.0000 (  4101 PWs)   bands (ev):

   -19.1205 -10.1907  -7.6230  -6.8374   4.3018   4.4571   5.3897   5.8007

          k = 0.0833 0.3849 0.0000 (  4109 PWs)   bands (ev):

   -18.5231 -11.2647  -7.9782  -6.1673   3.1851   5.2898   6.2165   6.6329

          k = 0.0833 0.4330 0.0000 (  4099 PWs)   bands (ev):

   -17.8552 -12.3222  -8.2613  -5.4508   2.0893   6.2166   6.7282   7.1567

          k = 0.0833 0.4811 0.0000 (  4109 PWs)   bands (ev):

   -17.1261 -13.3391  -8.4669  -4.7358   1.0886   6.5895   7.3060   8.1967

          k = 0.0833 0.5292 0.0000 (  4107 PWs)   bands (ev):

   -16.3679 -14.2735  -8.5915  -4.1343   0.3099   6.5373   8.4425   9.3203

          k = 0.0833 0.5774 0.0000 (  4096 PWs)   bands (ev):

   -15.8596 -14.8411  -8.6333  -3.8760  -0.0084   6.5173   9.6014   9.7575

          k = 0.1250 0.2165 0.0000 (  4103 PWs)   bands (ev):

   -20.1295  -8.0063  -7.8976  -6.8247   3.0615   3.9642   4.3805   6.3348

          k = 0.1250 0.2646 0.0000 (  4096 PWs)   bands (ev):

   -19.7242  -8.7380  -7.5315  -7.4100   3.6211   4.5227   4.9498   5.6678

          k = 0.1250 0.3127 0.0000 (  4096 PWs)   bands (ev):

   -19.2411  -9.6860  -7.9228  -6.9720   4.2912   4.6338   5.2069   5.6324

          k = 0.1250 0.3608 0.0000 (  4098 PWs)   bands (ev):

   -18.6822 -10.6963  -8.3499  -6.3367   3.5766   5.0706   5.9787   6.4272

          k = 0.1250 0.4090 0.0000 (  4110 PWs)   bands (ev):

   -18.0511 -11.7259  -8.6916  -5.6413   2.5081   5.9568   6.8601   7.3224

          k = 0.1250 0.4571 0.0000 (  4104 PWs)   bands (ev):

   -17.3539 -12.7408  -8.9485  -4.9165   1.4842   6.9382   7.4860   7.8379

          k = 0.1250 0.5052 0.0000 (  4103 PWs)   bands (ev):

   -16.6068 -13.7081  -9.1204  -4.2326   0.5916   7.3728   8.0665   8.8909

          k = 0.1250 0.5533 0.0000 (  4104 PWs)   bands (ev):

   -15.8941 -14.5331  -9.2065  -3.7587   0.0104   7.3390   9.2397   9.9313

          k = 0.1667 0.2887 0.0000 (  4096 PWs)   bands (ev):

   -19.2813  -9.4429  -8.1022  -7.0171   4.2358   4.7633   5.1357   5.5760

          k = 0.1667 0.3368 0.0000 (  4090 PWs)   bands (ev):

   -18.7620 -10.2607  -8.6999  -6.4222   3.7997   4.9603   5.8548   6.3152

          k = 0.1667 0.3849 0.0000 (  4092 PWs)   bands (ev):

   -18.1693 -11.1771  -9.1634  -5.7578   2.8041   5.7930   6.6757   7.1668

          k = 0.1667 0.4330 0.0000 (  4101 PWs)   bands (ev):

   -17.5078 -12.1392  -9.5050  -5.0440   1.8121   6.7306   7.5871   8.1246

          k = 0.1667 0.4811 0.0000 (  4092 PWs)   bands (ev):

   -16.7875 -13.0969  -9.7411  -4.3235   0.8805   7.7634   8.4537   8.5600

          k = 0.1667 0.5292 0.0000 (  4104 PWs)   bands (ev):

   -16.0410 -13.9938  -9.8805  -3.7019   0.1270   8.3639   8.9235   9.4922

          k = 0.1667 0.5774 0.0000 (  4110 PWs)   bands (ev):

   -15.5431 -14.5430  -9.9266  -3.4256  -0.1943   8.3509  10.0237  10.2144

          k = 0.2083 0.3608 0.0000 (  4094 PWs)   bands (ev):

   -18.2087 -10.9019  -9.4168  -5.7970   2.9124   5.7380   6.6124   7.1109

          k = 0.2083 0.4090 0.0000 (  4097 PWs)   bands (ev):

   -17.5853 -11.6609  -9.9708  -5.1098   2.0012   6.6215   7.4562   8.0183

          k = 0.2083 0.4571 0.0000 (  4085 PWs)   bands (ev):

   -16.8986 -12.5154 -10.3441  -4.3860   1.0992   7.6061   8.3447   9.0335

          k = 0.2083 0.5052 0.0000 (  4090 PWs)   bands (ev):

   -16.1656 -13.3924 -10.5717  -3.6845   0.2729   8.6788   9.1444   9.5427

          k = 0.2083 0.5533 0.0000 (  4096 PWs)   bands (ev):

   -15.4689 -14.1694 -10.6800  -3.1703  -0.3057   9.4652   9.5721   9.8545

          k = 0.2500 0.4330 0.0000 (  4100 PWs)   bands (ev):

   -16.9361 -12.2131 -10.6564  -4.4082   1.1812   7.5517   8.2686   8.9803

          k = 0.2500 0.4811 0.0000 (  4075 PWs)   bands (ev):

   -16.2325 -12.8916 -11.1206  -3.6829   0.3716   8.5739   8.9466  10.0472

          k = 0.2500 0.5292 0.0000 (  4077 PWs)   bands (ev):

   -15.5066 -13.6422 -11.3663  -3.0149  -0.3474   9.2359   9.6615  10.6181

          k = 0.2500 0.5774 0.0000 (  4074 PWs)   bands (ev):

   -15.0166 -14.1479 -11.4418  -2.6808  -0.6986   9.2770  10.5226  10.6577

          k = 0.2917 0.5052 0.0000 (  4062 PWs)   bands (ev):

   -15.5274 -13.3452 -11.7102  -2.9636  -0.3552   9.1110   9.6107  11.1504

          k = 0.2917 0.5533 0.0000 (  4078 PWs)   bands (ev):

   -14.8502 -13.8993 -12.0065  -2.3317  -0.9883   9.0606  10.6349  11.2988

          k = 0.3333 0.5774 0.0000 (  4080 PWs)   bands (ev):

   -14.2826 -14.2826 -12.2727  -1.6518  -1.6517   8.9742  11.2699  11.2699

     the Fermi energy is    -1.6219 ev

!    total energy              =     -36.88748843 Ry
     total all-electron energy =      -152.415683 Ry
     estimated scf accuracy    <          4.2E-10 Ry
     smearing contrib. (-TS)   =      -0.00002940 Ry
     internal energy E=F+TS    =     -36.88745903 Ry

     The total energy is F=E-TS. E is the sum of the following terms:
     one-electron contribution =    -154.31040955 Ry
     hartree contribution      =      78.79329674 Ry
     xc contribution           =      -9.28376015 Ry
     ewald contribution        =      60.24775952 Ry
     one-center paw contrib.   =     -12.33434559 Ry

     convergence has been achieved in   6 iterations

     Writing all to output data dir ./tmp/graphene.save/ :
     XML data file, charge density, pseudopotentials, collected wavefunctions

     init_run     :      2.67s CPU      2.69s WALL (       1 calls)
     electrons    :     23.35s CPU     25.16s WALL (       1 calls)

     Called by init_run:
     wfcinit      :      1.24s CPU      1.20s WALL (       1 calls)
     potinit      :      0.70s CPU      0.72s WALL (       1 calls)
     hinit0       :      0.59s CPU      0.57s WALL (       1 calls)

     Called by electrons:
     c_bands      :     19.21s CPU     20.23s WALL (       6 calls)
     sum_band     :      2.72s CPU      3.14s WALL (       6 calls)
     v_of_rho     :      0.68s CPU      0.84s WALL (       7 calls)
     newd         :      0.40s CPU      0.72s WALL (       7 calls)
     PAW_pot      :      0.46s CPU      0.43s WALL (       7 calls)
     mix_rho      :      0.07s CPU      0.06s WALL (       6 calls)

     Called by c_bands:
     init_us_2    :      0.47s CPU      0.46s WALL (     793 calls)
     cegterg      :     18.65s CPU     19.68s WALL (     366 calls)

     Called by *egterg:
     cdiaghg      :      0.21s CPU      0.21s WALL (    2167 calls)
     h_psi        :     13.80s CPU     13.36s WALL (    2228 calls)
     s_psi        :      1.04s CPU      1.01s WALL (    2228 calls)
     g_psi        :      0.10s CPU      0.10s WALL (    1801 calls)

     Called by h_psi:
     h_psi:calbec :      1.10s CPU      1.06s WALL (    2228 calls)
     vloc_psi     :     11.55s CPU     11.18s WALL (    2228 calls)
                                        0.00s GPU  (    2228 calls)
     add_vuspsi   :      1.06s CPU      1.02s WALL (    2228 calls)

     General routines
     calbec       :      1.39s CPU      1.35s WALL (    2594 calls)
     fft          :      0.70s CPU      0.67s WALL (      89 calls)
     ffts         :      0.50s CPU      0.47s WALL (      13 calls)
     fftw         :     11.29s CPU     10.92s WALL (   22498 calls)
     interpolate  :      0.53s CPU      0.50s WALL (       7 calls)

     Parallel routines

     PWSCF        :     26.12s CPU     28.01s WALL


   This run was terminated on:  12:45:42  11Apr2026            

=------------------------------------------------------------------------------=
   JOB DONE.
=------------------------------------------------------------------------------=
