
     Program PWSCF v.7.5 starts on 11Apr2026 at 12:49:15 

     This program is part of the open-source Quantum ESPRESSO suite
     for quantum simulation of materials; please cite
         "P. Giannozzi et al., J. Phys.:Condens. Matter 21 395502 (2009);
         "P. Giannozzi et al., J. Phys.:Condens. Matter 29 465901 (2017);
         "P. Giannozzi et al., J. Chem. Phys. 152 154105 (2020);
          URL http://www.quantum-espresso.org", 
     in publications or presentations arising from this work. More details at
     http://www.quantum-espresso.org/quote

     Parallel version (MPI), running on     1 processors

     MPI processes distributed on     1 nodes
     2383 MiB available memory on the printing compute node when the environment starts

     Waiting for input...
     Reading input from standard input

     Current dimensions of program PWSCF are:
     Max number of different atomic species (ntypx) = 10
     Max number of k-points (npk) =  40000
     Max angular momentum in pseudopotentials (lmaxx) =  4
     file C.pbe-n-kjpaw_psl.1.0.0.UPF: wavefunction(s)  2S 2P renormalized

     Subspace diagonalization in iterative solution of the eigenvalue problem:
     a serial algorithm will be used


     G-vector sticks info
     --------------------
     sticks:   dense  smooth     PW     G-vecs:    dense   smooth      PW
     Sum         847     421    121               117301    41381    6947

     Using Slab Decomposition



     bravais-lattice index     =            4
     lattice parameter (alat)  =       4.6500  a.u.
     unit-cell volume          =     522.4452 (a.u.)^3
     number of atoms/cell      =            2
     number of atomic types    =            1
     number of electrons       =         8.00
     number of Kohn-Sham states=            8
     kinetic-energy cutoff     =      70.0000  Ry
     charge density cutoff     =     560.0000  Ry
     scf convergence threshold =      1.0E-08
     mixing beta               =       0.7000
     number of iterations used =            8  plain     mixing
     Exchange-correlation= SLA  PW   PBX  PBC
                           (   1   4   3   4   0   0   0)

     celldm(1)=   4.650000  celldm(2)=   0.000000  celldm(3)=   6.000000
     celldm(4)=   0.000000  celldm(5)=   0.000000  celldm(6)=   0.000000

     crystal axes: (cart. coord. in units of alat)
               a(1) = (   1.000000   0.000000   0.000000 )  
               a(2) = (  -0.500000   0.866025   0.000000 )  
               a(3) = (   0.000000   0.000000   6.000000 )  

     reciprocal axes: (cart. coord. in units 2 pi/alat)
               b(1) = (  1.000000  0.577350 -0.000000 )  
               b(2) = (  0.000000  1.154701  0.000000 )  
               b(3) = (  0.000000 -0.000000  0.166667 )  


     PseudoPot. # 1 for C  read from file:
     ./pseudo/C.pbe-n-kjpaw_psl.1.0.0.UPF
     MD5 check sum: 5f16ad9a65e90284d1d834d4ab3b0f7d
     Pseudo is Projector augmented-wave + core cor, Zval =  4.0
     Generated using &quot;atomic&quot; code by A. Dal Corso  v.6.3
     Shape of augmentation charge: PSQ
     Using radial grid of 1073 points,  4 beta functions with: 
                l(1) =   0
                l(2) =   0
                l(3) =   1
                l(4) =   1
     Q(r) pseudized with 0 coefficients 


     atomic species   valence    mass     pseudopotential
     C                 4.00    12.01100     C ( 1.00)

     24 Sym. Ops., with inversion, found (12 have fractional translation)



   Cartesian axes

     site n.     atom                  positions (alat units)
         1        C      tau(   1) = (   0.0000000   0.0000000   0.0000000  )
         2        C      tau(   2) = (  -0.0000005   0.5773506   0.0000000  )

     number of k points=    61  Marzari-Vanderbilt smearing, width (Ry)=  0.0200
                       cart. coord. in units 2pi/alat
        k(    1) = (   0.0000000   0.0000000   0.0000000), wk =   0.0034722
        k(    2) = (   0.0000000   0.0481125   0.0000000), wk =   0.0208333
        k(    3) = (   0.0000000   0.0962250   0.0000000), wk =   0.0208333
        k(    4) = (   0.0000000   0.1443376   0.0000000), wk =   0.0208333
        k(    5) = (   0.0000000   0.1924501   0.0000000), wk =   0.0208333
        k(    6) = (   0.0000000   0.2405626   0.0000000), wk =   0.0208333
        k(    7) = (   0.0000000   0.2886751   0.0000000), wk =   0.0208333
        k(    8) = (   0.0000000   0.3367877   0.0000000), wk =   0.0208333
        k(    9) = (   0.0000000   0.3849002   0.0000000), wk =   0.0208333
        k(   10) = (   0.0000000   0.4330127   0.0000000), wk =   0.0208333
        k(   11) = (   0.0000000   0.4811252   0.0000000), wk =   0.0208333
        k(   12) = (   0.0000000   0.5292377   0.0000000), wk =   0.0208333
        k(   13) = (   0.0000000  -0.5773503   0.0000000), wk =   0.0104167
        k(   14) = (   0.0416667   0.0721688   0.0000000), wk =   0.0208333
        k(   15) = (   0.0416667   0.1202813   0.0000000), wk =   0.0416667
        k(   16) = (   0.0416667   0.1683938   0.0000000), wk =   0.0416667
        k(   17) = (   0.0416667   0.2165064   0.0000000), wk =   0.0416667
        k(   18) = (   0.0416667   0.2646189   0.0000000), wk =   0.0416667
        k(   19) = (   0.0416667   0.3127314   0.0000000), wk =   0.0416667
        k(   20) = (   0.0416667   0.3608439   0.0000000), wk =   0.0416667
        k(   21) = (   0.0416667   0.4089564   0.0000000), wk =   0.0416667
        k(   22) = (   0.0416667   0.4570690   0.0000000), wk =   0.0416667
        k(   23) = (   0.0416667   0.5051815   0.0000000), wk =   0.0416667
        k(   24) = (   0.0416667   0.5532940   0.0000000), wk =   0.0416667
        k(   25) = (   0.0833333   0.1443376   0.0000000), wk =   0.0208333
        k(   26) = (   0.0833333   0.1924501   0.0000000), wk =   0.0416667
        k(   27) = (   0.0833333   0.2405626   0.0000000), wk =   0.0416667
        k(   28) = (   0.0833333   0.2886751   0.0000000), wk =   0.0416667
        k(   29) = (   0.0833333   0.3367877   0.0000000), wk =   0.0416667
        k(   30) = (   0.0833333   0.3849002   0.0000000), wk =   0.0416667
        k(   31) = (   0.0833333   0.4330127   0.0000000), wk =   0.0416667
        k(   32) = (   0.0833333   0.4811252   0.0000000), wk =   0.0416667
        k(   33) = (   0.0833333   0.5292377   0.0000000), wk =   0.0416667
        k(   34) = (   0.0833333   0.5773503   0.0000000), wk =   0.0208333
        k(   35) = (   0.1250000   0.2165064   0.0000000), wk =   0.0208333
        k(   36) = (   0.1250000   0.2646189   0.0000000), wk =   0.0416667
        k(   37) = (   0.1250000   0.3127314   0.0000000), wk =   0.0416667
        k(   38) = (   0.1250000   0.3608439   0.0000000), wk =   0.0416667
        k(   39) = (   0.1250000   0.4089564   0.0000000), wk =   0.0416667
        k(   40) = (   0.1250000   0.4570690   0.0000000), wk =   0.0416667
        k(   41) = (   0.1250000   0.5051815   0.0000000), wk =   0.0416667
        k(   42) = (   0.1250000   0.5532940   0.0000000), wk =   0.0416667
        k(   43) = (   0.1666667   0.2886751   0.0000000), wk =   0.0208333
        k(   44) = (   0.1666667   0.3367877   0.0000000), wk =   0.0416667
        k(   45) = (   0.1666667   0.3849002   0.0000000), wk =   0.0416667
        k(   46) = (   0.1666667   0.4330127   0.0000000), wk =   0.0416667
        k(   47) = (   0.1666667   0.4811252   0.0000000), wk =   0.0416667
        k(   48) = (   0.1666667   0.5292377   0.0000000), wk =   0.0416667
        k(   49) = (   0.1666667   0.5773503   0.0000000), wk =   0.0208333
        k(   50) = (   0.2083333   0.3608439   0.0000000), wk =   0.0208333
        k(   51) = (   0.2083333   0.4089564   0.0000000), wk =   0.0416667
        k(   52) = (   0.2083333   0.4570690   0.0000000), wk =   0.0416667
        k(   53) = (   0.2083333   0.5051815   0.0000000), wk =   0.0416667
        k(   54) = (   0.2083333   0.5532940   0.0000000), wk =   0.0416667
        k(   55) = (   0.2500000   0.4330127   0.0000000), wk =   0.0208333
        k(   56) = (   0.2500000   0.4811252   0.0000000), wk =   0.0416667
        k(   57) = (   0.2500000   0.5292377   0.0000000), wk =   0.0416667
        k(   58) = (   0.2500000   0.5773503   0.0000000), wk =   0.0208333
        k(   59) = (   0.2916667   0.5051815   0.0000000), wk =   0.0208333
        k(   60) = (   0.2916667   0.5532940   0.0000000), wk =   0.0416667
        k(   61) = (   0.3333333   0.5773503   0.0000000), wk =   0.0069444

     Dense  grid:   117301 G-vectors     FFT dimensions: (  36,  36, 216)

     Smooth grid:    41381 G-vectors     FFT dimensions: (  27,  27, 150)

     Estimated max dynamical RAM per process >     188.87 MB

     Check: negative core charge=   -0.000001

     Initial potential from superposition of free atoms

     starting charge       7.9999, renormalised to       8.0000

     negative rho (up, down):  2.146E-05 0.000E+00
     Starting wfcs are    8 randomized atomic wfcs
     Checking if some PAW data can be deallocated... 

     total cpu time spent up to now is        2.9 secs

     Self-consistent Calculation

     iteration #  1     ecut=    70.00 Ry     beta= 0.70
     Davidson diagonalization with overlap
     ethr =  1.00E-02,  avg # of iterations =  5.8

     negative rho (up, down):  1.660E-05 0.000E+00

     total cpu time spent up to now is       11.1 secs

     total energy              =     -36.86069170 Ry
     estimated scf accuracy    <       0.19515608 Ry

     iteration #  2     ecut=    70.00 Ry     beta= 0.70
     Davidson diagonalization with overlap
     ethr =  2.44E-03,  avg # of iterations =  3.6

     negative rho (up, down):  2.090E-05 0.000E+00

     total cpu time spent up to now is       15.6 secs

     total energy              =     -36.88751099 Ry
     estimated scf accuracy    <       0.00196709 Ry

     iteration #  3     ecut=    70.00 Ry     beta= 0.70
     Davidson diagonalization with overlap
     ethr =  2.46E-05,  avg # of iterations = 10.6

     negative rho (up, down):  2.575E-05 0.000E+00

     total cpu time spent up to now is       23.4 secs

     total energy              =     -36.88780682 Ry
     estimated scf accuracy    <       0.00015583 Ry

     iteration #  4     ecut=    70.00 Ry     beta= 0.70
     Davidson diagonalization with overlap
     ethr =  1.95E-06,  avg # of iterations =  4.2

     negative rho (up, down):  2.611E-05 0.000E+00

     total cpu time spent up to now is       28.0 secs

     total energy              =     -36.88782032 Ry
     estimated scf accuracy    <       0.00000212 Ry

     iteration #  5     ecut=    70.00 Ry     beta= 0.70
     Davidson diagonalization with overlap
     ethr =  2.65E-08,  avg # of iterations =  2.9

     negative rho (up, down):  2.610E-05 0.000E+00

     total cpu time spent up to now is       32.7 secs

     total energy              =     -36.88782144 Ry
     estimated scf accuracy    <       0.00000006 Ry

     iteration #  6     ecut=    70.00 Ry     beta= 0.70
     Davidson diagonalization with overlap
     ethr =  7.47E-10,  avg # of iterations =  2.7

     negative rho (up, down):  2.610E-05 0.000E+00

     total cpu time spent up to now is       40.7 secs

     End of self-consistent calculation

          k = 0.0000 0.0000 0.0000 (  5211 PWs)   bands (ev):

   -21.2337  -9.3195  -4.7045  -4.7044   1.5208   2.3965   2.7373   4.7473

          k = 0.0000 0.0481 0.0000 (  5197 PWs)   bands (ev):

   -21.1926  -9.2702  -4.8741  -4.7943   1.5769   2.4531   2.7941   4.8032

          k = 0.0000 0.0962 0.0000 (  5151 PWs)   bands (ev):

   -21.0692  -9.1225  -5.3570  -5.0453   1.7452   2.6226   2.9647   4.9711

          k = 0.0000 0.1443 0.0000 (  5151 PWs)   bands (ev):

   -20.8640  -8.8774  -6.0902  -5.4123   2.0258   2.9050   3.2490   5.2504

          k = 0.0000 0.1925 0.0000 (  5155 PWs)   bands (ev):

   -20.5774  -8.5367  -7.0004  -5.8433   2.4184   3.2995   3.6470   5.6395

          k = 0.0000 0.2406 0.0000 (  5153 PWs)   bands (ev):

   -20.2104  -8.1032  -8.0227  -6.2935   2.9228   3.8046   4.1585   6.1248

          k = 0.0000 0.2887 0.0000 (  5175 PWs)   bands (ev):

   -19.7641  -9.1067  -7.5814  -6.7289   3.5383   4.4104   4.7830   5.6435

          k = 0.0000 0.3368 0.0000 (  5179 PWs)   bands (ev):

   -19.2402 -10.2147  -7.1256  -6.9784   4.2636   4.4230   5.2098   5.5181

          k = 0.0000 0.3849 0.0000 (  5131 PWs)   bands (ev):

   -18.6413 -11.3186  -7.4670  -6.3068   3.2836   5.0945   6.0217   6.1124

          k = 0.0000 0.4330 0.0000 (  5172 PWs)   bands (ev):

   -17.9714 -12.3967  -7.7419  -5.5898   2.1570   5.8992   6.1399   6.9672

          k = 0.0000 0.4811 0.0000 (  5162 PWs)   bands (ev):

   -17.2396 -13.4277  -7.9429  -4.8766   1.1357   5.8752   7.1162   8.0205

          k = 0.0000 0.5292 0.0000 (  5180 PWs)   bands (ev):

   -16.4774 -14.3723  -8.0652  -4.2807   0.3492   5.8177   8.2641   9.1725

          k = 0.0000-0.5774 0.0000 (  5168 PWs)   bands (ev):

   -15.9649 -14.9461  -8.1062  -4.0270   0.0310   5.7974   9.4408   9.5834

          k = 0.0417 0.0722 0.0000 (  5177 PWs)   bands (ev):

   -21.1103  -9.1717  -5.1910  -4.9741   1.6891   2.5661   2.9078   4.9152

          k = 0.0417 0.1203 0.0000 (  5156 PWs)   bands (ev):

   -20.9460  -8.9753  -5.7781  -5.3045   1.9136   2.7921   3.1353   5.1388

          k = 0.0417 0.1684 0.0000 (  5155 PWs)   bands (ev):

   -20.7001  -8.6823  -6.5785  -5.7252   2.2503   3.1306   3.4765   5.4734

          k = 0.0417 0.2165 0.0000 (  5151 PWs)   bands (ev):

   -20.3733  -8.2951  -7.5279  -6.1831   2.6989   3.5807   3.9313   5.9154

          k = 0.0417 0.2646 0.0000 (  5152 PWs)   bands (ev):

   -19.9667  -8.5691  -7.8171  -6.6383   3.2590   4.1391   4.4997   6.1177

          k = 0.0417 0.3127 0.0000 (  5152 PWs)   bands (ev):

   -19.4816  -9.6569  -7.2539  -7.0626   3.9297   4.7306   5.1046   5.1804

          k = 0.0417 0.3608 0.0000 (  5181 PWs)   bands (ev):

   -18.9201 -10.7576  -7.4371  -6.6150   3.8334   4.7093   5.6307   5.9661

          k = 0.0417 0.4090 0.0000 (  5165 PWs)   bands (ev):

   -18.2854 -11.8454  -7.7486  -5.9170   2.6933   5.5888   6.2498   6.5181

          k = 0.0417 0.4571 0.0000 (  5165 PWs)   bands (ev):

   -17.5835 -12.8988  -7.9886  -5.1929   1.6143   6.0931   6.6324   7.5171

          k = 0.0417 0.5052 0.0000 (  5167 PWs)   bands (ev):

   -16.8297 -13.8921  -8.1514  -4.5168   0.6917   6.0285   7.7178   8.6181

          k = 0.0417 0.5533 0.0000 (  5180 PWs)   bands (ev):

   -16.1080 -14.7351  -8.2336  -4.0568   0.1056   5.9889   8.9131   9.8034

          k = 0.0833 0.1443 0.0000 (  5139 PWs)   bands (ev):

   -20.7410  -8.7310  -6.3938  -5.7275   2.1942   3.0743   3.4197   5.4180

          k = 0.0833 0.1925 0.0000 (  5131 PWs)   bands (ev):

   -20.4549  -8.3913  -7.1823  -6.2272   2.5870   3.4686   3.8178   5.8072

          k = 0.0833 0.2406 0.0000 (  5148 PWs)   bands (ev):

   -20.0885  -8.1096  -7.9592  -6.7319   3.0915   3.9738   4.3297   6.2862

          k = 0.0833 0.2887 0.0000 (  5153 PWs)   bands (ev):

   -19.6430  -9.1274  -7.4390  -7.2038   3.7072   4.5798   4.9548   5.4453

          k = 0.0833 0.3368 0.0000 (  5159 PWs)   bands (ev):

   -19.1203 -10.1908  -7.6233  -6.8378   4.3013   4.4331   5.3457   5.6923

          k = 0.0833 0.3849 0.0000 (  5181 PWs)   bands (ev):

   -18.5229 -11.2648  -7.9785  -6.1676   3.1850   5.2670   6.1734   6.5309

          k = 0.0833 0.4330 0.0000 (  5178 PWs)   bands (ev):

   -17.8551 -12.3224  -8.2616  -5.4512   2.0892   6.1966   6.7252   7.1153

          k = 0.0833 0.4811 0.0000 (  5174 PWs)   bands (ev):

   -17.1260 -13.3393  -8.4672  -4.7361   1.0884   6.5896   7.2854   8.1583

          k = 0.0833 0.5292 0.0000 (  5180 PWs)   bands (ev):

   -16.3678 -14.2737  -8.5919  -4.1346   0.3097   6.5375   8.4239   9.2860

          k = 0.0833 0.5774 0.0000 (  5180 PWs)   bands (ev):

   -15.8593 -14.8415  -8.6336  -3.8763  -0.0086   6.5176   9.5871   9.7392

          k = 0.1250 0.2165 0.0000 (  5128 PWs)   bands (ev):

   -20.1292  -8.0067  -7.8977  -6.8250   3.0357   3.9184   4.2730   6.6086

          k = 0.1250 0.2646 0.0000 (  5146 PWs)   bands (ev):

   -19.7239  -8.7381  -7.5319  -7.4104   3.5959   4.4778   4.8418   5.6674

          k = 0.1250 0.3127 0.0000 (  5167 PWs)   bands (ev):

   -19.2408  -9.6861  -7.9231  -6.9724   4.2669   4.6331   5.1634   5.5239

          k = 0.1250 0.3608 0.0000 (  5176 PWs)   bands (ev):

   -18.6820 -10.6965  -8.3502  -6.3371   3.5764   5.0473   5.9360   6.3182

          k = 0.1250 0.4090 0.0000 (  5176 PWs)   bands (ev):

   -18.0509 -11.7260  -8.6919  -5.6416   2.5080   5.9349   6.8193   7.2170

          k = 0.1250 0.4571 0.0000 (  5179 PWs)   bands (ev):

   -17.3538 -12.7410  -8.9489  -4.9168   1.4841   6.9188   7.4836   7.8001

          k = 0.1250 0.5052 0.0000 (  5177 PWs)   bands (ev):

   -16.6066 -13.7083  -9.1207  -4.2329   0.5914   7.3729   8.0474   8.8579

          k = 0.1250 0.5533 0.0000 (  5171 PWs)   bands (ev):

   -15.8938 -14.5334  -9.2068  -3.7590   0.0102   7.3393   9.2231   9.9091

          k = 0.1667 0.2887 0.0000 (  5156 PWs)   bands (ev):

   -19.2810  -9.4430  -8.1025  -7.0175   4.2114   4.7632   5.0918   5.4674

          k = 0.1667 0.3368 0.0000 (  5169 PWs)   bands (ev):

   -18.7618 -10.2608  -8.7002  -6.4225   3.7996   4.9369   5.8123   6.2061

          k = 0.1667 0.3849 0.0000 (  5173 PWs)   bands (ev):

   -18.1691 -11.1772  -9.1637  -5.7581   2.8040   5.7707   6.6354   7.0570

          k = 0.1667 0.4330 0.0000 (  5170 PWs)   bands (ev):

   -17.5077 -12.1393  -9.5054  -5.0443   1.8120   6.7097   7.5503   8.0157

          k = 0.1667 0.4811 0.0000 (  5176 PWs)   bands (ev):

   -16.7874 -13.0971  -9.7415  -4.3238   0.8803   7.7449   8.4517   8.5293

          k = 0.1667 0.5292 0.0000 (  5175 PWs)   bands (ev):

   -16.0408 -13.9940  -9.8808  -3.7022   0.1268   8.3638   8.9065   9.4730

          k = 0.1667 0.5774 0.0000 (  5156 PWs)   bands (ev):

   -15.5428 -14.5433  -9.9269  -3.4258  -0.1945   8.3510  10.0116  10.1977

          k = 0.2083 0.3608 0.0000 (  5164 PWs)   bands (ev):

   -18.2086 -10.9020  -9.4173  -5.7973   2.9123   5.7156   6.5724   7.0011

          k = 0.2083 0.4090 0.0000 (  5170 PWs)   bands (ev):

   -17.5852 -11.6609  -9.9713  -5.1101   2.0011   6.6005   7.4200   7.9079

          k = 0.2083 0.4571 0.0000 (  5171 PWs)   bands (ev):

   -16.8985 -12.5155 -10.3446  -4.3863   1.0990   7.5867   8.3156   8.9231

          k = 0.2083 0.5052 0.0000 (  5172 PWs)   bands (ev):

   -16.1655 -13.3925 -10.5721  -3.6848   0.2728   8.6620   9.1286   9.5405

          k = 0.2083 0.5533 0.0000 (  5166 PWs)   bands (ev):

   -15.4687 -14.1696 -10.6804  -3.1705  -0.3059   9.4648   9.5681   9.8406

          k = 0.2500 0.4330 0.0000 (  5158 PWs)   bands (ev):

   -16.9360 -12.2130 -10.6569  -4.4085   1.1811   7.5323   8.2404   8.8688

          k = 0.2500 0.4811 0.0000 (  5172 PWs)   bands (ev):

   -16.2324 -12.8916 -11.1211  -3.6831   0.3714   8.5567   8.9329   9.9360

          k = 0.2500 0.5292 0.0000 (  5164 PWs)   bands (ev):

   -15.5065 -13.6423 -11.3668  -3.0151  -0.3476   9.2327   9.6476  10.6158

          k = 0.2500 0.5774 0.0000 (  5170 PWs)   bands (ev):

   -15.0165 -14.1481 -11.4423  -2.6811  -0.6988   9.2757  10.5215  10.6492

          k = 0.2917 0.5052 0.0000 (  5170 PWs)   bands (ev):

   -15.5274 -13.3452 -11.7108  -2.9639  -0.3554   9.1081   9.5965  11.0416

          k = 0.2917 0.5533 0.0000 (  5182 PWs)   bands (ev):

   -14.8501 -13.8993 -12.0072  -2.3319  -0.9885   9.0597  10.6257  11.2971

          k = 0.3333 0.5774 0.0000 (  5178 PWs)   bands (ev):

   -14.2825 -14.2824 -12.2734  -1.6520  -1.6519   8.9736  11.2666  11.2667

     the Fermi energy is    -1.6221 ev

!    total energy              =     -36.88782147 Ry
     total all-electron energy =      -152.416016 Ry
     estimated scf accuracy    <          5.2E-10 Ry
     smearing contrib. (-TS)   =      -0.00002940 Ry
     internal energy E=F+TS    =     -36.88779206 Ry

     The total energy is F=E-TS. E is the sum of the following terms:
     one-electron contribution =    -154.31063916 Ry
     hartree contribution      =      78.79340917 Ry
     xc contribution           =      -9.28387087 Ry
     ewald contribution        =      60.24775952 Ry
     one-center paw contrib.   =     -12.33445072 Ry

     convergence has been achieved in   6 iterations

     Writing all to output data dir ./tmp/graphene.save/ :
     XML data file, charge density, pseudopotentials, collected wavefunctions

     init_run     :      2.72s CPU      2.86s WALL (       1 calls)
     electrons    :     34.44s CPU     37.81s WALL (       1 calls)

     Called by init_run:
     wfcinit      :      1.44s CPU      1.43s WALL (       1 calls)
     potinit      :      0.47s CPU      0.51s WALL (       1 calls)
     hinit0       :      0.67s CPU      0.67s WALL (       1 calls)

     Called by electrons:
     c_bands      :     28.67s CPU     29.28s WALL (       6 calls)
     sum_band     :      4.11s CPU      4.65s WALL (       6 calls)
     v_of_rho     :      0.78s CPU      0.99s WALL (       7 calls)
     newd         :      0.50s CPU      2.66s WALL (       7 calls)
     PAW_pot      :      0.47s CPU      0.45s WALL (       7 calls)
     mix_rho      :      0.08s CPU      0.08s WALL (       6 calls)

     Called by c_bands:
     init_us_2    :      0.62s CPU      0.60s WALL (     793 calls)
     cegterg      :     27.91s CPU     28.55s WALL (     366 calls)

     Called by *egterg:
     cdiaghg      :      0.21s CPU      0.21s WALL (    2180 calls)
     h_psi        :     21.47s CPU     22.42s WALL (    2241 calls)
     s_psi        :      1.37s CPU      1.32s WALL (    2241 calls)
     g_psi        :      0.13s CPU      0.13s WALL (    1814 calls)

     Called by h_psi:
     h_psi:calbec :      1.45s CPU      1.39s WALL (    2241 calls)
     vloc_psi     :     18.53s CPU     19.59s WALL (    2241 calls)
                                        0.00s GPU  (    2241 calls)
     add_vuspsi   :      1.39s CPU      1.34s WALL (    2241 calls)

     General routines
     calbec       :      1.84s CPU      1.77s WALL (    2607 calls)
     fft          :      0.83s CPU      0.80s WALL (      89 calls)
     ffts         :      0.27s CPU      0.26s WALL (      13 calls)
     fftw         :     18.25s CPU     19.30s WALL (   22642 calls)
     interpolate  :      0.30s CPU      0.29s WALL (       7 calls)

     Parallel routines

     PWSCF        :     37.24s CPU     40.89s WALL


   This run was terminated on:  12:49:56  11Apr2026            

=------------------------------------------------------------------------------=
   JOB DONE.
=------------------------------------------------------------------------------=
