
     Program PWSCF v.7.5 starts on 12Apr2026 at 23:43:16 

     This program is part of the open-source Quantum ESPRESSO suite
     for quantum simulation of materials; please cite
         "P. Giannozzi et al., J. Phys.:Condens. Matter 21 395502 (2009);
         "P. Giannozzi et al., J. Phys.:Condens. Matter 29 465901 (2017);
         "P. Giannozzi et al., J. Chem. Phys. 152 154105 (2020);
          URL http://www.quantum-espresso.org", 
     in publications or presentations arising from this work. More details at
     http://www.quantum-espresso.org/quote

     Parallel version (MPI), running on     1 processors

     MPI processes distributed on     1 nodes
     419 MiB available memory on the printing compute node when the environment starts

     Waiting for input...
     Reading input from standard input

     Current dimensions of program PWSCF are:
     Max number of different atomic species (ntypx) = 10
     Max number of k-points (npk) =  40000
     Max angular momentum in pseudopotentials (lmaxx) =  4
     file C.pbe-n-kjpaw_psl.1.0.0.UPF: wavefunction(s)  2S 2P renormalized
     Message from routine setup:
     using ibrav=0 with symmetry is DISCOURAGED, use correct ibrav instead

     Subspace diagonalization in iterative solution of the eigenvalue problem:
     a serial algorithm will be used


     G-vector sticks info
     --------------------
     sticks:   dense  smooth     PW     G-vecs:    dense   smooth      PW
     Sum        1061     533    173               162353    57357   10717

     Using Slab Decomposition



     bravais-lattice index     =            0
     lattice parameter (alat)  =       5.2066  a.u.
     unit-cell volume          =     594.1644 (a.u.)^3
     number of atoms/cell      =            2
     number of atomic types    =            1
     number of electrons       =         8.00
     number of Kohn-Sham states=            8
     kinetic-energy cutoff     =      80.0000  Ry
     charge density cutoff     =     640.0000  Ry
     scf convergence threshold =      1.0E-08
     mixing beta               =       0.7000
     number of iterations used =            8  plain     mixing
     energy convergence thresh.=      1.0E-04
     force convergence thresh. =      1.0E-04
     Exchange-correlation= SLA  PW   PBX  PBC
                           (   1   4   3   4   0   0   0)
     nstep                     =           50


     celldm(1)=   5.206573  celldm(2)=   0.000000  celldm(3)=   0.000000
     celldm(4)=   0.000000  celldm(5)=   0.000000  celldm(6)=   0.000000

     crystal axes: (cart. coord. in units of alat)
               a(1) = (   1.000000   0.000000   0.000000 )  
               a(2) = (  -0.446429   0.773237   0.000000 )  
               a(3) = (   0.000000   0.000000   5.444251 )  

     reciprocal axes: (cart. coord. in units 2 pi/alat)
               b(1) = (  1.000000  0.577350 -0.000000 )  
               b(2) = (  0.000000  1.293265  0.000000 )  
               b(3) = (  0.000000 -0.000000  0.183680 )  


     PseudoPot. # 1 for C  read from file:
     ./pseudo/C.pbe-n-kjpaw_psl.1.0.0.UPF
     MD5 check sum: 5f16ad9a65e90284d1d834d4ab3b0f7d
     Pseudo is Projector augmented-wave + core cor, Zval =  4.0
     Generated using &quot;atomic&quot; code by A. Dal Corso  v.6.3
     Shape of augmentation charge: PSQ
     Using radial grid of 1073 points,  4 beta functions with: 
                l(1) =   0
                l(2) =   0
                l(3) =   1
                l(4) =   1
     Q(r) pseudized with 0 coefficients 


     atomic species   valence    mass     pseudopotential
     C                 4.00    12.01100     C ( 1.00)

      4 Sym. Ops., with inversion, found ( 2 have fractional translation)



   Cartesian axes

     site n.     atom                  positions (alat units)
         1        C      tau(   1) = (   0.0000000   0.0000000   0.0000000  )
         2        C      tau(   2) = (   0.0357138   0.5154915   0.0000000  )

     number of k points=   290  Marzari-Vanderbilt smearing, width (Ry)=  0.0200

     Number of k-points >= 100: set verbosity='high' to print them.

     Dense  grid:   162353 G-vectors     FFT dimensions: (  45,  45, 240)

     Smooth grid:    57357 G-vectors     FFT dimensions: (  30,  27, 162)

     Estimated max dynamical RAM per process >     475.10 MB

     Initial potential from superposition of free atoms

     starting charge       7.9999, renormalised to       8.0000

     negative rho (up, down):  2.324E-05 0.000E+00
     Starting wfcs are    8 randomized atomic wfcs
     Checking if some PAW data can be deallocated... 

     total cpu time spent up to now is       10.9 secs

     Self-consistent Calculation

     iteration #  1     ecut=    80.00 Ry     beta= 0.70
     Davidson diagonalization with overlap
     ethr =  1.00E-02,  avg # of iterations =  6.0

     negative rho (up, down):  2.070E-05 0.000E+00

     total cpu time spent up to now is       51.9 secs

     total energy              =     -36.81855589 Ry
     estimated scf accuracy    <       0.12809690 Ry

     iteration #  2     ecut=    80.00 Ry     beta= 0.70
     Davidson diagonalization with overlap
     ethr =  1.60E-03,  avg # of iterations =  3.7

     negative rho (up, down):  2.554E-05 0.000E+00

     total cpu time spent up to now is       79.6 secs

     total energy              =     -36.83513922 Ry
     estimated scf accuracy    <       0.00176242 Ry

     iteration #  3     ecut=    80.00 Ry     beta= 0.70
     Davidson diagonalization with overlap
     c_bands:  1 eigenvalues not converged
     c_bands:  1 eigenvalues not converged
     c_bands:  1 eigenvalues not converged
     c_bands:  1 eigenvalues not converged
     c_bands:  1 eigenvalues not converged
     c_bands:  1 eigenvalues not converged
     c_bands:  1 eigenvalues not converged
     c_bands:  1 eigenvalues not converged
     c_bands:  1 eigenvalues not converged
     c_bands:  1 eigenvalues not converged
     ethr =  2.20E-05,  avg # of iterations = 10.4

     negative rho (up, down):  2.946E-05 0.000E+00

     total cpu time spent up to now is      130.3 secs

     total energy              =     -36.83535341 Ry
     estimated scf accuracy    <       0.00014218 Ry

     iteration #  4     ecut=    80.00 Ry     beta= 0.70
     Davidson diagonalization with overlap
     c_bands:  1 eigenvalues not converged
     c_bands:  1 eigenvalues not converged
     c_bands:  1 eigenvalues not converged
     ethr =  1.78E-06,  avg # of iterations =  4.2

     negative rho (up, down):  2.965E-05 0.000E+00

     total cpu time spent up to now is      159.5 secs

     total energy              =     -36.83536424 Ry
     estimated scf accuracy    <       0.00000119 Ry

     iteration #  5     ecut=    80.00 Ry     beta= 0.70
     Davidson diagonalization with overlap
     ethr =  1.49E-08,  avg # of iterations =  3.0

     negative rho (up, down):  2.966E-05 0.000E+00

     total cpu time spent up to now is      189.0 secs

     total energy              =     -36.83536516 Ry
     estimated scf accuracy    <       0.00000003 Ry

     iteration #  6     ecut=    80.00 Ry     beta= 0.70
     Davidson diagonalization with overlap
     ethr =  3.71E-10,  avg # of iterations =  2.9

     negative rho (up, down):  2.964E-05 0.000E+00

     total cpu time spent up to now is      217.9 secs

     End of self-consistent calculation

     Number of k-points >= 100: set verbosity='high' to print the bands.

     the Fermi energy is    -2.3067 ev

!    total energy              =     -36.83536517 Ry
     total all-electron energy =      -152.363560 Ry
     estimated scf accuracy    <          6.9E-10 Ry
     smearing contrib. (-TS)   =       0.00007294 Ry
     internal energy E=F+TS    =     -36.83543811 Ry

     The total energy is F=E-TS. E is the sum of the following terms:
     one-electron contribution =    -140.36221077 Ry
     hartree contribution      =      71.66353038 Ry
     xc contribution           =      -9.04547490 Ry
     ewald contribution        =      53.23496924 Ry
     one-center paw contrib.   =     -12.32625207 Ry

     convergence has been achieved in   6 iterations

     negative rho (up, down):  2.964E-05 0.000E+00

     Forces acting on atoms (cartesian axes, Ry/au):

     atom    1 type  1   force =     0.01468556   -0.00389374    0.00000000
     atom    2 type  1   force =    -0.01468556    0.00389374    0.00000000

     Total force =     0.021486     Total SCF correction =     0.000038

     BFGS Geometry Optimization
     Energy error            =      4.6E-04 Ry
     Gradient error          =      1.5E-02 Ry/Bohr

     number of scf cycles    =   1
     number of bfgs steps    =   0

     energy             new  =     -36.8353651733 Ry

     new trust radius        =       0.0151929891 bohr
     new conv_thr            =       0.0000000100 Ry


ATOMIC_POSITIONS (crystal)
C                0.0023888095       -0.0009671682        0.0000000000
C                0.3309441905        0.6676341682        0.0000000000



     Writing config-only to output data dir ./tmp/graphene_0p12_relax.save/ :
     XML data file
     NEW-OLD atomic charge density approx. for the potential

     negative rho (up, down):  2.969E-05 0.000E+00

     total cpu time spent up to now is      222.4 secs

     Self-consistent Calculation

     iteration #  1     ecut=    80.00 Ry     beta= 0.70
     Davidson diagonalization with overlap
     c_bands:  1 eigenvalues not converged
     c_bands:  1 eigenvalues not converged
     ethr =  1.00E-06,  avg # of iterations =  6.0

     negative rho (up, down):  2.972E-05 0.000E+00

     total cpu time spent up to now is      263.5 secs

     total energy              =     -36.83553314 Ry
     estimated scf accuracy    <       0.00005565 Ry

     iteration #  2     ecut=    80.00 Ry     beta= 0.70
     Davidson diagonalization with overlap
     ethr =  6.96E-07,  avg # of iterations =  2.0

     negative rho (up, down):  2.972E-05 0.000E+00

     total cpu time spent up to now is      287.1 secs

     total energy              =     -36.83553989 Ry
     estimated scf accuracy    <       0.00000089 Ry

     iteration #  3     ecut=    80.00 Ry     beta= 0.70
     Davidson diagonalization with overlap
     ethr =  1.12E-08,  avg # of iterations =  2.9

     negative rho (up, down):  2.973E-05 0.000E+00

     total cpu time spent up to now is      312.6 secs

     total energy              =     -36.83554022 Ry
     estimated scf accuracy    <       0.00000007 Ry

     iteration #  4     ecut=    80.00 Ry     beta= 0.70
     Davidson diagonalization with overlap
     ethr =  8.35E-10,  avg # of iterations =  2.1

     negative rho (up, down):  2.973E-05 0.000E+00

     total cpu time spent up to now is      335.2 secs

     End of self-consistent calculation

     Number of k-points >= 100: set verbosity='high' to print the bands.

     the Fermi energy is    -2.3256 ev

!    total energy              =     -36.83554023 Ry
     total all-electron energy =      -152.363735 Ry
     estimated scf accuracy    <          9.5E-10 Ry
     smearing contrib. (-TS)   =       0.00008646 Ry
     internal energy E=F+TS    =     -36.83562669 Ry

     The total energy is F=E-TS. E is the sum of the following terms:
     one-electron contribution =    -140.37983530 Ry
     hartree contribution      =      71.67204767 Ry
     xc contribution           =      -9.04706523 Ry
     ewald contribution        =      53.24565460 Ry
     one-center paw contrib.   =     -12.32642844 Ry

     convergence has been achieved in   4 iterations

     negative rho (up, down):  2.973E-05 0.000E+00

     Forces acting on atoms (cartesian axes, Ry/au):

     atom    1 type  1   force =    -0.00288270    0.00386930    0.00000000
     atom    2 type  1   force =     0.00288270   -0.00386930    0.00000000

     Total force =     0.006824     Total SCF correction =     0.000042
     Energy error            =      1.8E-04 Ry
     Gradient error          =      3.9E-03 Ry/Bohr

     number of scf cycles    =   2
     number of bfgs steps    =   1

     energy             old  =     -36.8353651733 Ry
     energy             new  =     -36.8355402307 Ry

     CASE: energy            _new < energy            _old

     new trust radius        =       0.0035742704 bohr
     new conv_thr            =       0.0000000002 Ry


ATOMIC_POSITIONS (crystal)
C                0.0023488084       -0.0002216774        0.0000000000
C                0.3309841916        0.6668886774        0.0000000000



     Writing config-only to output data dir ./tmp/graphene_0p12_relax.save/ :
     XML data file
     NEW-OLD atomic charge density approx. for the potential

     negative rho (up, down):  2.972E-05 0.000E+00

     total cpu time spent up to now is      339.6 secs

     Self-consistent Calculation

     iteration #  1     ecut=    80.00 Ry     beta= 0.70
     Davidson diagonalization with overlap
     ethr =  1.00E-06,  avg # of iterations =  2.8

     Threshold (ethr) on eigenvalues was too large:
     Diagonalizing with lowered threshold

     Davidson diagonalization with overlap
     ethr =  5.21E-08,  avg # of iterations =  1.7

     negative rho (up, down):  2.973E-05 0.000E+00

     total cpu time spent up to now is      387.7 secs

     total energy              =     -36.83555309 Ry
     estimated scf accuracy    <       0.00000446 Ry

     iteration #  2     ecut=    80.00 Ry     beta= 0.70
     Davidson diagonalization with overlap
     ethr =  5.58E-08,  avg # of iterations =  1.9

     negative rho (up, down):  2.973E-05 0.000E+00

     total cpu time spent up to now is      409.8 secs

     total energy              =     -36.83555360 Ry
     estimated scf accuracy    <       0.00000007 Ry

     iteration #  3     ecut=    80.00 Ry     beta= 0.70
     Davidson diagonalization with overlap
     ethr =  8.47E-10,  avg # of iterations =  2.5

     negative rho (up, down):  2.973E-05 0.000E+00

     total cpu time spent up to now is      434.5 secs

     total energy              =     -36.83555362 Ry
     estimated scf accuracy    <          4.0E-09 Ry

     iteration #  4     ecut=    80.00 Ry     beta= 0.70
     Davidson diagonalization with overlap
     ethr =  4.97E-11,  avg # of iterations =  2.2

     negative rho (up, down):  2.973E-05 0.000E+00

     total cpu time spent up to now is      457.5 secs

     End of self-consistent calculation

     Number of k-points >= 100: set verbosity='high' to print the bands.

     the Fermi energy is    -2.3303 ev

!    total energy              =     -36.83555362 Ry
     total all-electron energy =      -152.363748 Ry
     estimated scf accuracy    <          2.2E-11 Ry
     smearing contrib. (-TS)   =       0.00008564 Ry
     internal energy E=F+TS    =     -36.83563927 Ry

     The total energy is F=E-TS. E is the sum of the following terms:
     one-electron contribution =    -140.38418506 Ry
     hartree contribution      =      71.67439048 Ry
     xc contribution           =      -9.04754229 Ry
     ewald contribution        =      53.24816969 Ry
     one-center paw contrib.   =     -12.32647208 Ry

     convergence has been achieved in   4 iterations

     negative rho (up, down):  2.973E-05 0.000E+00

     Forces acting on atoms (cartesian axes, Ry/au):

     atom    1 type  1   force =    -0.00032219   -0.00148568    0.00000000
     atom    2 type  1   force =     0.00032219    0.00148568    0.00000000

     Total force =     0.002150     Total SCF correction =     0.000006
     Energy error            =      1.3E-05 Ry
     Gradient error          =      1.5E-03 Ry/Bohr

     number of scf cycles    =   3
     number of bfgs steps    =   2

     energy             old  =     -36.8355402307 Ry
     energy             new  =     -36.8355536250 Ry

     CASE: energy            _new < energy            _old

     new trust radius        =       0.0011391802 bohr
     new conv_thr            =            1.0E-10 Ry


ATOMIC_POSITIONS (crystal)
C                0.0021302163       -0.0004669579        0.0000000000
C                0.3312027837        0.6671339579        0.0000000000



     Writing config-only to output data dir ./tmp/graphene_0p12_relax.save/ :
     XML data file
     NEW-OLD atomic charge density approx. for the potential

     negative rho (up, down):  2.973E-05 0.000E+00

     total cpu time spent up to now is      462.0 secs

     Self-consistent Calculation

     iteration #  1     ecut=    80.00 Ry     beta= 0.70
     Davidson diagonalization with overlap
     ethr =  1.00E-06,  avg # of iterations =  2.0

     Threshold (ethr) on eigenvalues was too large:
     Diagonalizing with lowered threshold

     Davidson diagonalization with overlap
     ethr =  3.98E-09,  avg # of iterations =  2.7

     negative rho (up, down):  2.973E-05 0.000E+00

     total cpu time spent up to now is      510.1 secs

     total energy              =     -36.83555489 Ry
     estimated scf accuracy    <       0.00000038 Ry

     iteration #  2     ecut=    80.00 Ry     beta= 0.70
     Davidson diagonalization with overlap
     ethr =  4.70E-09,  avg # of iterations =  2.0

     negative rho (up, down):  2.973E-05 0.000E+00

     total cpu time spent up to now is      532.4 secs

     total energy              =     -36.83555494 Ry
     estimated scf accuracy    <          6.4E-09 Ry

     iteration #  3     ecut=    80.00 Ry     beta= 0.70
     Davidson diagonalization with overlap
     ethr =  7.98E-11,  avg # of iterations =  2.3

     negative rho (up, down):  2.973E-05 0.000E+00

     total cpu time spent up to now is      556.3 secs

     total energy              =     -36.83555494 Ry
     estimated scf accuracy    <          3.9E-10 Ry

     iteration #  4     ecut=    80.00 Ry     beta= 0.70
     Davidson diagonalization with overlap
     ethr =  4.88E-12,  avg # of iterations =  2.3

     negative rho (up, down):  2.973E-05 0.000E+00

     total cpu time spent up to now is      579.2 secs

     End of self-consistent calculation

     Number of k-points >= 100: set verbosity='high' to print the bands.

     the Fermi energy is    -2.3257 ev

!    total energy              =     -36.83555494 Ry
     total all-electron energy =      -152.363749 Ry
     estimated scf accuracy    <          1.1E-11 Ry
     smearing contrib. (-TS)   =       0.00008467 Ry
     internal energy E=F+TS    =     -36.83563961 Ry

     The total energy is F=E-TS. E is the sum of the following terms:
     one-electron contribution =    -140.38030178 Ry
     hartree contribution      =      71.67240092 Ry
     xc contribution           =      -9.04715079 Ry
     ewald contribution        =      53.24584451 Ry
     one-center paw contrib.   =     -12.32643247 Ry

     convergence has been achieved in   4 iterations

     negative rho (up, down):  2.973E-05 0.000E+00

     Forces acting on atoms (cartesian axes, Ry/au):

     atom    1 type  1   force =     0.00026797    0.00017957    0.00000000
     atom    2 type  1   force =    -0.00026797   -0.00017957    0.00000000

     Total force =     0.000456     Total SCF correction =     0.000001
     Energy error            =      1.3E-06 Ry
     Gradient error          =      2.7E-04 Ry/Bohr

     number of scf cycles    =   4
     number of bfgs steps    =   3

     energy             old  =     -36.8355536250 Ry
     energy             new  =     -36.8355549435 Ry

     CASE: energy            _new < energy            _old

     new trust radius        =       0.0002734670 bohr
     new conv_thr            =            1.0E-10 Ry


ATOMIC_POSITIONS (crystal)
C                0.0021904739       -0.0004398841        0.0000000000
C                0.3311425261        0.6671068841        0.0000000000



     Writing config-only to output data dir ./tmp/graphene_0p12_relax.save/ :
     XML data file
     NEW-OLD atomic charge density approx. for the potential

     negative rho (up, down):  2.973E-05 0.000E+00

     total cpu time spent up to now is      583.7 secs

     Self-consistent Calculation

     iteration #  1     ecut=    80.00 Ry     beta= 0.70
     Davidson diagonalization with overlap
     ethr =  1.00E-06,  avg # of iterations =  2.0

     Threshold (ethr) on eigenvalues was too large:
     Diagonalizing with lowered threshold

     Davidson diagonalization with overlap
     ethr =  1.38E-10,  avg # of iterations =  3.1

     negative rho (up, down):  2.973E-05 0.000E+00

     total cpu time spent up to now is      633.0 secs

     total energy              =     -36.83555502 Ry
     estimated scf accuracy    <       0.00000002 Ry

     iteration #  2     ecut=    80.00 Ry     beta= 0.70
     Davidson diagonalization with overlap
     ethr =  1.99E-10,  avg # of iterations =  2.0

     negative rho (up, down):  2.973E-05 0.000E+00

     total cpu time spent up to now is      655.7 secs

     total energy              =     -36.83555503 Ry
     estimated scf accuracy    <          2.7E-10 Ry

     iteration #  3     ecut=    80.00 Ry     beta= 0.70
     Davidson diagonalization with overlap
     ethr =  3.42E-12,  avg # of iterations =  2.3

     negative rho (up, down):  2.973E-05 0.000E+00

     total cpu time spent up to now is      679.3 secs

     End of self-consistent calculation

     Number of k-points >= 100: set verbosity='high' to print the bands.

     the Fermi energy is    -2.3267 ev

!    total energy              =     -36.83555503 Ry
     total all-electron energy =      -152.363749 Ry
     estimated scf accuracy    <          1.9E-11 Ry
     smearing contrib. (-TS)   =       0.00008500 Ry
     internal energy E=F+TS    =     -36.83564003 Ry

     The total energy is F=E-TS. E is the sum of the following terms:
     one-electron contribution =    -140.38110837 Ry
     hartree contribution      =      71.67280922 Ry
     xc contribution           =      -9.04723004 Ry
     ewald contribution        =      53.24632989 Ry
     one-center paw contrib.   =     -12.32644072 Ry

     convergence has been achieved in   3 iterations

     negative rho (up, down):  2.973E-05 0.000E+00

     Forces acting on atoms (cartesian axes, Ry/au):

     atom    1 type  1   force =    -0.00001913    0.00001195    0.00000000
     atom    2 type  1   force =     0.00001913   -0.00001195    0.00000000

     Total force =     0.000032     Total SCF correction =     0.000001
     Energy error            =      8.3E-08 Ry
     Gradient error          =      1.9E-05 Ry/Bohr

     bfgs converged in   5 scf cycles and   4 bfgs steps
     (criteria: energy <  1.0E-04 Ry, force <  1.0E-04 Ry/Bohr)

     End of BFGS Geometry Optimization

     Final energy             =     -36.8355550270 Ry

     File ./tmp/graphene_0p12_relax.bfgs deleted, as requested
Begin final coordinates

ATOMIC_POSITIONS (crystal)
C                0.0021904739       -0.0004398841        0.0000000000
C                0.3311425261        0.6671068841        0.0000000000
End final coordinates



     Writing all to output data dir ./tmp/graphene_0p12_relax.save/ :
     XML data file, charge density, pseudopotentials, collected wavefunctions

     init_run     :     10.05s CPU     10.88s WALL (       1 calls)
     electrons    :    638.48s CPU    650.56s WALL (       5 calls)
     update_pot   :      1.14s CPU      1.32s WALL (       4 calls)
     forces       :     13.60s CPU     14.95s WALL (       5 calls)

     Called by init_run:
     wfcinit      :      8.20s CPU      8.66s WALL (       1 calls)
     potinit      :      0.58s CPU      0.70s WALL (       1 calls)
     hinit0       :      0.88s CPU      0.93s WALL (       1 calls)

     Called by electrons:
     c_bands      :    549.12s CPU    552.95s WALL (      24 calls)
     sum_band     :     81.42s CPU     86.34s WALL (      24 calls)
     v_of_rho     :      4.69s CPU      6.17s WALL (      26 calls)
     newd         :      2.55s CPU      5.31s WALL (      26 calls)
     PAW_pot      :      1.86s CPU      1.86s WALL (      30 calls)
     mix_rho      :      0.42s CPU      0.43s WALL (      24 calls)

     Called by c_bands:
     init_us_2    :     19.32s CPU     19.57s WALL (   16820 calls)
     cegterg      :    529.20s CPU    532.76s WALL (    6960 calls)

     Called by *egterg:
     cdiaghg      :      2.49s CPU      2.52s WALL (   26632 calls)
     h_psi        :    387.59s CPU    390.70s WALL (   28952 calls)
     s_psi        :     27.34s CPU     27.56s WALL (   28952 calls)
     g_psi        :      2.47s CPU      2.49s WALL (   21702 calls)

     Called by h_psi:
     h_psi:calbec :     29.10s CPU     29.28s WALL (   28952 calls)
     vloc_psi     :    328.89s CPU    331.64s WALL (   28952 calls)
                                        0.00s GPU  (   28952 calls)
     add_vuspsi   :     27.37s CPU     27.58s WALL (   28952 calls)

     General routines
     calbec       :     49.16s CPU     49.57s WALL (   42872 calls)
     fft          :      3.44s CPU      3.46s WALL (     390 calls)
     ffts         :      0.32s CPU      0.32s WALL (      50 calls)
     fftw         :    325.18s CPU    327.78s WALL (  357336 calls)
     interpolate  :      0.56s CPU      0.56s WALL (      26 calls)

     Parallel routines

     PWSCF        :  11m 7.51s CPU  11m25.37s WALL


   This run was terminated on:  23:54:42  12Apr2026            

=------------------------------------------------------------------------------=
   JOB DONE.
=------------------------------------------------------------------------------=
