
     Program PWSCF v.7.5 starts on 12Apr2026 at 20:56:50 

     This program is part of the open-source Quantum ESPRESSO suite
     for quantum simulation of materials; please cite
         "P. Giannozzi et al., J. Phys.:Condens. Matter 21 395502 (2009);
         "P. Giannozzi et al., J. Phys.:Condens. Matter 29 465901 (2017);
         "P. Giannozzi et al., J. Chem. Phys. 152 154105 (2020);
          URL http://www.quantum-espresso.org", 
     in publications or presentations arising from this work. More details at
     http://www.quantum-espresso.org/quote

     Parallel version (MPI), running on     1 processors

     MPI processes distributed on     1 nodes
     2134 MiB available memory on the printing compute node when the environment starts

     Waiting for input...
     Reading input from standard input

     Current dimensions of program PWSCF are:
     Max number of different atomic species (ntypx) = 10
     Max number of k-points (npk) =  40000
     Max angular momentum in pseudopotentials (lmaxx) =  4
     file C.pbe-n-kjpaw_psl.1.0.0.UPF: wavefunction(s)  2S 2P renormalized
     Message from routine setup:
     using ibrav=0 with symmetry is DISCOURAGED, use correct ibrav instead

     Subspace diagonalization in iterative solution of the eigenvalue problem:
     a serial algorithm will be used


     G-vector sticks info
     --------------------
     sticks:   dense  smooth     PW     G-vecs:    dense   smooth      PW
     Sum        1145     575    187               174149    61515   11385

     Using Slab Decomposition



     bravais-lattice index     =            0
     lattice parameter (alat)  =       5.5785  a.u.
     unit-cell volume          =     636.6047 (a.u.)^3
     number of atoms/cell      =            2
     number of atomic types    =            1
     number of electrons       =         8.00
     number of Kohn-Sham states=            8
     kinetic-energy cutoff     =      80.0000  Ry
     charge density cutoff     =     640.0000  Ry
     scf convergence threshold =      1.0E-08
     mixing beta               =       0.7000
     number of iterations used =            8  plain     mixing
     Exchange-correlation= SLA  PW   PBX  PBC
                           (   1   4   3   4   0   0   0)

     celldm(1)=   5.578472  celldm(2)=   0.000000  celldm(3)=   0.000000
     celldm(4)=   0.000000  celldm(5)=   0.000000  celldm(6)=   0.000000

     crystal axes: (cart. coord. in units of alat)
               a(1) = (   1.000000   0.000000   0.000000 )  
               a(2) = (  -0.416667   0.721688   0.000000 )  
               a(3) = (   0.000000   0.000000   5.081301 )  

     reciprocal axes: (cart. coord. in units 2 pi/alat)
               b(1) = (  1.000000  0.577350 -0.000000 )  
               b(2) = (  0.000000  1.385641  0.000000 )  
               b(3) = (  0.000000 -0.000000  0.196800 )  


     PseudoPot. # 1 for C  read from file:
     ./pseudo/C.pbe-n-kjpaw_psl.1.0.0.UPF
     MD5 check sum: 5f16ad9a65e90284d1d834d4ab3b0f7d
     Pseudo is Projector augmented-wave + core cor, Zval =  4.0
     Generated using &quot;atomic&quot; code by A. Dal Corso  v.6.3
     Shape of augmentation charge: PSQ
     Using radial grid of 1073 points,  4 beta functions with: 
                l(1) =   0
                l(2) =   0
                l(3) =   1
                l(4) =   1
     Q(r) pseudized with 0 coefficients 


     atomic species   valence    mass     pseudopotential
     C                 4.00    12.01100     C ( 1.00)

      4 Sym. Ops., with inversion, found ( 2 have fractional translation)



   Cartesian axes

     site n.     atom                  positions (alat units)
         1        C      tau(   1) = (   0.0000000   0.0000000   0.0000000  )
         2        C      tau(   2) = (   0.0555551   0.4811254   0.0000000  )

     number of k points=   290  Marzari-Vanderbilt smearing, width (Ry)=  0.0200

     Number of k-points >= 100: set verbosity='high' to print them.

     Dense  grid:   174149 G-vectors     FFT dimensions: (  45,  45, 240)

     Smooth grid:    61515 G-vectors     FFT dimensions: (  36,  27, 162)

     Estimated max dynamical RAM per process >     500.20 MB

     Initial potential from superposition of free atoms

     starting charge       7.9999, renormalised to       8.0000

     negative rho (up, down):  2.419E-05 0.000E+00
     Starting wfcs are    8 randomized atomic wfcs
     Checking if some PAW data can be deallocated... 

     total cpu time spent up to now is       14.5 secs

     Self-consistent Calculation

     iteration #  1     ecut=    80.00 Ry     beta= 0.70
     Davidson diagonalization with overlap
     ethr =  1.00E-02,  avg # of iterations =  6.2

     negative rho (up, down):  2.068E-05 0.000E+00

     total cpu time spent up to now is       64.8 secs

     total energy              =     -36.74681036 Ry
     estimated scf accuracy    <       0.10681734 Ry

     iteration #  2     ecut=    80.00 Ry     beta= 0.70
     Davidson diagonalization with overlap
     ethr =  1.34E-03,  avg # of iterations =  3.4

     negative rho (up, down):  2.553E-05 0.000E+00

     total cpu time spent up to now is      110.7 secs

     total energy              =     -36.76088590 Ry
     estimated scf accuracy    <       0.00163523 Ry

     iteration #  3     ecut=    80.00 Ry     beta= 0.70
     Davidson diagonalization with overlap
     c_bands:  2 eigenvalues not converged
     c_bands:  1 eigenvalues not converged
     c_bands:  1 eigenvalues not converged
     c_bands:  1 eigenvalues not converged
     c_bands:  1 eigenvalues not converged
     c_bands:  1 eigenvalues not converged
     c_bands:  1 eigenvalues not converged
     c_bands:  1 eigenvalues not converged
     c_bands:  1 eigenvalues not converged
     c_bands:  1 eigenvalues not converged
     c_bands:  1 eigenvalues not converged
     c_bands:  1 eigenvalues not converged
     c_bands:  1 eigenvalues not converged
     c_bands:  1 eigenvalues not converged
     ethr =  2.04E-05,  avg # of iterations = 10.9

     negative rho (up, down):  2.920E-05 0.000E+00

     total cpu time spent up to now is      191.8 secs

     total energy              =     -36.76111413 Ry
     estimated scf accuracy    <       0.00014249 Ry

     iteration #  4     ecut=    80.00 Ry     beta= 0.70
     Davidson diagonalization with overlap
     ethr =  1.78E-06,  avg # of iterations =  4.0

     negative rho (up, down):  2.930E-05 0.000E+00

     total cpu time spent up to now is      224.9 secs

     total energy              =     -36.76112455 Ry
     estimated scf accuracy    <       0.00000135 Ry

     iteration #  5     ecut=    80.00 Ry     beta= 0.70
     Davidson diagonalization with overlap
     ethr =  1.68E-08,  avg # of iterations =  3.1

     negative rho (up, down):  2.929E-05 0.000E+00

     total cpu time spent up to now is      260.2 secs

     total energy              =     -36.76112557 Ry
     estimated scf accuracy    <       0.00000004 Ry

     iteration #  6     ecut=    80.00 Ry     beta= 0.70
     Davidson diagonalization with overlap
     ethr =  5.12E-10,  avg # of iterations =  2.7

     negative rho (up, down):  2.927E-05 0.000E+00

     total cpu time spent up to now is      291.2 secs

     End of self-consistent calculation

     Number of k-points >= 100: set verbosity='high' to print the bands.

     the Fermi energy is    -2.4761 ev

!    total energy              =     -36.76112559 Ry
     total all-electron energy =      -152.289320 Ry
     estimated scf accuracy    <          2.9E-09 Ry
     smearing contrib. (-TS)   =       0.00010285 Ry
     internal energy E=F+TS    =     -36.76122843 Ry

     The total energy is F=E-TS. E is the sum of the following terms:
     one-electron contribution =    -130.92662646 Ry
     hartree contribution      =      66.88396412 Ry
     xc contribution           =      -8.91529299 Ry
     ewald contribution        =      48.52097245 Ry
     one-center paw contrib.   =     -12.32424554 Ry

     convergence has been achieved in   6 iterations

     Writing all to output data dir ./tmp/graphene_0p20.save/ :
     XML data file, charge density, pseudopotentials, collected wavefunctions

     init_run     :     13.32s CPU     14.36s WALL (       1 calls)
     electrons    :    272.44s CPU    276.78s WALL (       1 calls)

     Called by init_run:
     wfcinit      :     11.41s CPU     12.06s WALL (       1 calls)
     potinit      :      0.68s CPU      0.81s WALL (       1 calls)
     hinit0       :      0.85s CPU      0.91s WALL (       1 calls)

     Called by electrons:
     c_bands      :    241.89s CPU    243.97s WALL (       6 calls)
     sum_band     :     27.76s CPU     29.03s WALL (       6 calls)
     v_of_rho     :      1.44s CPU      1.89s WALL (       7 calls)
     newd         :      0.96s CPU      1.74s WALL (       7 calls)
     PAW_pot      :      0.56s CPU      0.57s WALL (       7 calls)
     mix_rho      :      0.14s CPU      0.15s WALL (       6 calls)

     Called by c_bands:
     init_us_2    :      5.37s CPU      5.45s WALL (    3770 calls)
     cegterg      :    235.54s CPU    237.53s WALL (    1740 calls)

     Called by *egterg:
     cdiaghg      :      1.21s CPU      1.24s WALL (   10507 calls)
     h_psi        :    181.52s CPU    183.69s WALL (   10797 calls)
     s_psi        :     11.61s CPU     11.73s WALL (   10797 calls)
     g_psi        :      1.02s CPU      1.03s WALL (    8767 calls)

     Called by h_psi:
     h_psi:calbec :     12.20s CPU     12.28s WALL (   10797 calls)
     vloc_psi     :    156.71s CPU    158.70s WALL (   10797 calls)
                                        0.00s GPU  (   10797 calls)
     add_vuspsi   :     11.74s CPU     11.86s WALL (   10797 calls)

     General routines
     calbec       :     15.23s CPU     15.37s WALL (   12537 calls)
     fft          :      1.35s CPU      1.37s WALL (      89 calls)
     ffts         :      0.32s CPU      0.31s WALL (      13 calls)
     fftw         :    146.79s CPU    148.38s WALL (  105776 calls)
     interpolate  :      0.39s CPU      0.39s WALL (       7 calls)

     Parallel routines

     PWSCF        :   4m46.03s CPU   4m52.17s WALL


   This run was terminated on:  21: 1:42  12Apr2026            

=------------------------------------------------------------------------------=
   JOB DONE.
=------------------------------------------------------------------------------=
