
     Program PWSCF v.7.5 starts on 13Apr2026 at  0:25:40 

     This program is part of the open-source Quantum ESPRESSO suite
     for quantum simulation of materials; please cite
         "P. Giannozzi et al., J. Phys.:Condens. Matter 21 395502 (2009);
         "P. Giannozzi et al., J. Phys.:Condens. Matter 29 465901 (2017);
         "P. Giannozzi et al., J. Chem. Phys. 152 154105 (2020);
          URL http://www.quantum-espresso.org", 
     in publications or presentations arising from this work. More details at
     http://www.quantum-espresso.org/quote

     Parallel version (MPI), running on     1 processors

     MPI processes distributed on     1 nodes
     402 MiB available memory on the printing compute node when the environment starts

     Waiting for input...
     Reading input from standard input

     Current dimensions of program PWSCF are:
     Max number of different atomic species (ntypx) = 10
     Max number of k-points (npk) =  40000
     Max angular momentum in pseudopotentials (lmaxx) =  4
     file C.pbe-n-kjpaw_psl.1.0.0.UPF: wavefunction(s)  2S 2P renormalized
     Message from routine setup:
     using ibrav=0 with symmetry is DISCOURAGED, use correct ibrav instead

     Subspace diagonalization in iterative solution of the eigenvalue problem:
     a serial algorithm will be used


     G-vector sticks info
     --------------------
     sticks:   dense  smooth     PW     G-vecs:    dense   smooth      PW
     Sum        1125     565    183               171161    60521   11221

     Using Slab Decomposition



     bravais-lattice index     =            0
     lattice parameter (alat)  =       5.4855  a.u.
     unit-cell volume          =     625.9946 (a.u.)^3
     number of atoms/cell      =            2
     number of atomic types    =            1
     number of electrons       =         8.00
     number of Kohn-Sham states=            8
     kinetic-energy cutoff     =      80.0000  Ry
     charge density cutoff     =     640.0000  Ry
     scf convergence threshold =      1.0E-08
     mixing beta               =       0.7000
     number of iterations used =            8  plain     mixing
     Exchange-correlation= SLA  PW   PBX  PBC
                           (   1   4   3   4   0   0   0)

     celldm(1)=   5.485497  celldm(2)=   0.000000  celldm(3)=   0.000000
     celldm(4)=   0.000000  celldm(5)=   0.000000  celldm(6)=   0.000000

     crystal axes: (cart. coord. in units of alat)
               a(1) = (   1.000000   0.000000   0.000000 )  
               a(2) = (  -0.423729   0.733920   0.000000 )  
               a(3) = (   0.000000   0.000000   5.167425 )  

     reciprocal axes: (cart. coord. in units 2 pi/alat)
               b(1) = (  1.000000  0.577350 -0.000000 )  
               b(2) = (  0.000000  1.362547  0.000000 )  
               b(3) = (  0.000000 -0.000000  0.193520 )  


     PseudoPot. # 1 for C  read from file:
     ./pseudo/C.pbe-n-kjpaw_psl.1.0.0.UPF
     MD5 check sum: 5f16ad9a65e90284d1d834d4ab3b0f7d
     Pseudo is Projector augmented-wave + core cor, Zval =  4.0
     Generated using &quot;atomic&quot; code by A. Dal Corso  v.6.3
     Shape of augmentation charge: PSQ
     Using radial grid of 1073 points,  4 beta functions with: 
                l(1) =   0
                l(2) =   0
                l(3) =   1
                l(4) =   1
     Q(r) pseudized with 0 coefficients 


     atomic species   valence    mass     pseudopotential
     C                 4.00    12.01100     C ( 1.00)

      4 Sym. Ops., with inversion, found ( 2 have fractional translation)



   Cartesian axes

     site n.     atom                  positions (alat units)
         1        C      tau(   1) = (   0.0000000   0.0000000   0.0000000  )
         2        C      tau(   2) = (   0.0508470   0.4892800   0.0000000  )

     number of k points=   290  Marzari-Vanderbilt smearing, width (Ry)=  0.0200

     Number of k-points >= 100: set verbosity='high' to print them.

     Dense  grid:   171161 G-vectors     FFT dimensions: (  45,  45, 240)

     Smooth grid:    60521 G-vectors     FFT dimensions: (  36,  27, 162)

     Estimated max dynamical RAM per process >     492.34 MB

     Initial potential from superposition of free atoms

     starting charge       7.9999, renormalised to       8.0000

     negative rho (up, down):  2.385E-05 0.000E+00
     Starting wfcs are    8 randomized atomic wfcs
     Checking if some PAW data can be deallocated... 

     total cpu time spent up to now is       11.6 secs

     Self-consistent Calculation

     iteration #  1     ecut=    80.00 Ry     beta= 0.70
     Davidson diagonalization with overlap
     ethr =  1.00E-02,  avg # of iterations =  6.1

     negative rho (up, down):  2.039E-05 0.000E+00

     total cpu time spent up to now is       51.4 secs

     total energy              =     -36.76667142 Ry
     estimated scf accuracy    <       0.11100136 Ry

     iteration #  2     ecut=    80.00 Ry     beta= 0.70
     Davidson diagonalization with overlap
     ethr =  1.39E-03,  avg # of iterations =  3.6

     negative rho (up, down):  2.530E-05 0.000E+00

     total cpu time spent up to now is       79.3 secs

     total energy              =     -36.78117524 Ry
     estimated scf accuracy    <       0.00166492 Ry

     iteration #  3     ecut=    80.00 Ry     beta= 0.70
     Davidson diagonalization with overlap
     c_bands:  1 eigenvalues not converged
     c_bands:  1 eigenvalues not converged
     c_bands:  1 eigenvalues not converged
     c_bands:  1 eigenvalues not converged
     c_bands:  1 eigenvalues not converged
     c_bands:  1 eigenvalues not converged
     c_bands:  1 eigenvalues not converged
     ethr =  2.08E-05,  avg # of iterations = 10.4

     negative rho (up, down):  2.912E-05 0.000E+00

     total cpu time spent up to now is      129.0 secs

     total energy              =     -36.78139723 Ry
     estimated scf accuracy    <       0.00014205 Ry

     iteration #  4     ecut=    80.00 Ry     beta= 0.70
     Davidson diagonalization with overlap
     c_bands:  1 eigenvalues not converged
     c_bands:  1 eigenvalues not converged
     c_bands:  1 eigenvalues not converged
     c_bands:  1 eigenvalues not converged
     ethr =  1.78E-06,  avg # of iterations =  4.2

     negative rho (up, down):  2.924E-05 0.000E+00

     total cpu time spent up to now is      157.5 secs

     total energy              =     -36.78140760 Ry
     estimated scf accuracy    <       0.00000129 Ry

     iteration #  5     ecut=    80.00 Ry     beta= 0.70
     Davidson diagonalization with overlap
     ethr =  1.61E-08,  avg # of iterations =  3.1

     negative rho (up, down):  2.923E-05 0.000E+00

     total cpu time spent up to now is      187.7 secs

     total energy              =     -36.78140860 Ry
     estimated scf accuracy    <       0.00000004 Ry

     iteration #  6     ecut=    80.00 Ry     beta= 0.70
     Davidson diagonalization with overlap
     ethr =  4.74E-10,  avg # of iterations =  2.7

     negative rho (up, down):  2.921E-05 0.000E+00

     total cpu time spent up to now is      216.1 secs

     End of self-consistent calculation

     Number of k-points >= 100: set verbosity='high' to print the bands.

     the Fermi energy is    -2.4646 ev

!    total energy              =     -36.78140862 Ry
     total all-electron energy =      -152.309603 Ry
     estimated scf accuracy    <          2.7E-09 Ry
     smearing contrib. (-TS)   =       0.00010705 Ry
     internal energy E=F+TS    =     -36.78151567 Ry

     The total energy is F=E-TS. E is the sum of the following terms:
     one-electron contribution =    -133.15648578 Ry
     hartree contribution      =      68.01233981 Ry
     xc contribution           =      -8.94593697 Ry
     ewald contribution        =      49.63308293 Ry
     one-center paw contrib.   =     -12.32451566 Ry

     convergence has been achieved in   6 iterations

     Writing all to output data dir ./tmp/graphene_0p18.save/ :
     XML data file, charge density, pseudopotentials, collected wavefunctions

     init_run     :     10.88s CPU     11.55s WALL (       1 calls)
     electrons    :    201.31s CPU    204.49s WALL (       1 calls)

     Called by init_run:
     wfcinit      :      9.16s CPU      9.57s WALL (       1 calls)
     potinit      :      0.59s CPU      0.67s WALL (       1 calls)
     hinit0       :      0.80s CPU      0.83s WALL (       1 calls)

     Called by electrons:
     c_bands      :    175.72s CPU    176.90s WALL (       6 calls)
     sum_band     :     23.23s CPU     24.40s WALL (       6 calls)
     v_of_rho     :      1.31s CPU      1.64s WALL (       7 calls)
     newd         :      0.72s CPU      1.39s WALL (       7 calls)
     PAW_pot      :      0.43s CPU      0.43s WALL (       7 calls)
     mix_rho      :      0.14s CPU      0.14s WALL (       6 calls)

     Called by c_bands:
     init_us_2    :      4.64s CPU      4.69s WALL (    3770 calls)
     cegterg      :    170.36s CPU    171.49s WALL (    1740 calls)

     Called by *egterg:
     cdiaghg      :      0.98s CPU      0.99s WALL (   10461 calls)
     h_psi        :    128.47s CPU    129.70s WALL (   10751 calls)
     s_psi        :      8.83s CPU      8.90s WALL (   10751 calls)
     g_psi        :      0.84s CPU      0.85s WALL (    8721 calls)

     Called by h_psi:
     h_psi:calbec :      9.77s CPU      9.83s WALL (   10751 calls)
     vloc_psi     :    109.12s CPU    110.23s WALL (   10751 calls)
                                        0.00s GPU  (   10751 calls)
     add_vuspsi   :      8.90s CPU      8.96s WALL (   10751 calls)

     General routines
     calbec       :     12.51s CPU     12.61s WALL (   12491 calls)
     fft          :      1.24s CPU      1.25s WALL (      89 calls)
     ffts         :      0.29s CPU      0.29s WALL (      13 calls)
     fftw         :    105.26s CPU    106.16s WALL (  106000 calls)
     interpolate  :      0.35s CPU      0.35s WALL (       7 calls)

     Parallel routines

     PWSCF        :   3m32.46s CPU   3m36.88s WALL


   This run was terminated on:   0:29:17  13Apr2026            

=------------------------------------------------------------------------------=
   JOB DONE.
=------------------------------------------------------------------------------=
