
     Program PWSCF v.7.5 starts on 12Apr2026 at  9: 4:14 

     This program is part of the open-source Quantum ESPRESSO suite
     for quantum simulation of materials; please cite
         "P. Giannozzi et al., J. Phys.:Condens. Matter 21 395502 (2009);
         "P. Giannozzi et al., J. Phys.:Condens. Matter 29 465901 (2017);
         "P. Giannozzi et al., J. Chem. Phys. 152 154105 (2020);
          URL http://www.quantum-espresso.org", 
     in publications or presentations arising from this work. More details at
     http://www.quantum-espresso.org/quote

     Parallel version (MPI), running on     1 processors

     MPI processes distributed on     1 nodes
     2389 MiB available memory on the printing compute node when the environment starts

     Waiting for input...
     Reading input from standard input

     Current dimensions of program PWSCF are:
     Max number of different atomic species (ntypx) = 10
     Max number of k-points (npk) =  40000
     Max angular momentum in pseudopotentials (lmaxx) =  4
     file C.pbe-n-kjpaw_psl.1.0.0.UPF: wavefunction(s)  2S 2P renormalized
     Message from routine setup:
     using ibrav=0 with symmetry is DISCOURAGED, use correct ibrav instead

     Subspace diagonalization in iterative solution of the eigenvalue problem:
     a serial algorithm will be used


     G-vector sticks info
     --------------------
     sticks:   dense  smooth     PW     G-vecs:    dense   smooth      PW
     Sum         991     497    163               150871    53329   10107

     Using Slab Decomposition



     bravais-lattice index     =            0
     lattice parameter (alat)  =       4.8347  a.u.
     unit-cell volume          =     551.7241 (a.u.)^3
     number of atoms/cell      =            2
     number of atomic types    =            1
     number of electrons       =         8.00
     number of Kohn-Sham states=            8
     kinetic-energy cutoff     =      80.0000  Ry
     charge density cutoff     =     640.0000  Ry
     scf convergence threshold =      1.0E-08
     mixing beta               =       0.7000
     number of iterations used =            8  plain     mixing
     Exchange-correlation= SLA  PW   PBX  PBC
                           (   1   4   3   4   0   0   0)

     celldm(1)=   4.834675  celldm(2)=   0.000000  celldm(3)=   0.000000
     celldm(4)=   0.000000  celldm(5)=   0.000000  celldm(6)=   0.000000

     crystal axes: (cart. coord. in units of alat)
               a(1) = (   1.000000   0.000000   0.000000 )  
               a(2) = (  -0.480769   0.832717   0.000000 )  
               a(3) = (   0.000000   0.000000   5.863039 )  

     reciprocal axes: (cart. coord. in units 2 pi/alat)
               b(1) = (  1.000000  0.577350 -0.000000 )  
               b(2) = (  0.000000  1.200889  0.000000 )  
               b(3) = (  0.000000 -0.000000  0.170560 )  


     PseudoPot. # 1 for C  read from file:
     ./pseudo/C.pbe-n-kjpaw_psl.1.0.0.UPF
     MD5 check sum: 5f16ad9a65e90284d1d834d4ab3b0f7d
     Pseudo is Projector augmented-wave + core cor, Zval =  4.0
     Generated using &quot;atomic&quot; code by A. Dal Corso  v.6.3
     Shape of augmentation charge: PSQ
     Using radial grid of 1073 points,  4 beta functions with: 
                l(1) =   0
                l(2) =   0
                l(3) =   1
                l(4) =   1
     Q(r) pseudized with 0 coefficients 


     atomic species   valence    mass     pseudopotential
     C                 4.00    12.01100     C ( 1.00)

      4 Sym. Ops., with inversion, found ( 2 have fractional translation)



   Cartesian axes

     site n.     atom                  positions (alat units)
         1        C      tau(   1) = (   0.0000000   0.0000000   0.0000000  )
         2        C      tau(   2) = (   0.0128200   0.5551446   0.0000000  )

     number of k points=   290  Marzari-Vanderbilt smearing, width (Ry)=  0.0200

     Number of k-points >= 100: set verbosity='high' to print them.

     Dense  grid:   150871 G-vectors     FFT dimensions: (  45,  45, 240)

     Smooth grid:    53329 G-vectors     FFT dimensions: (  27,  27, 162)

     Estimated max dynamical RAM per process >     437.99 MB

     Initial potential from superposition of free atoms

     starting charge       7.9999, renormalised to       8.0000

     negative rho (up, down):  2.237E-05 0.000E+00
     Starting wfcs are    8 randomized atomic wfcs
     Checking if some PAW data can be deallocated... 

     total cpu time spent up to now is       11.6 secs

     Self-consistent Calculation

     iteration #  1     ecut=    80.00 Ry     beta= 0.70
     Davidson diagonalization with overlap
     ethr =  1.00E-02,  avg # of iterations =  5.3

     negative rho (up, down):  2.044E-05 0.000E+00

     total cpu time spent up to now is       50.9 secs

     total energy              =     -36.85932403 Ry
     estimated scf accuracy    <       0.16654591 Ry

     iteration #  2     ecut=    80.00 Ry     beta= 0.70
     Davidson diagonalization with overlap
     ethr =  2.08E-03,  avg # of iterations =  3.8

     negative rho (up, down):  2.552E-05 0.000E+00

     total cpu time spent up to now is       78.9 secs

     total energy              =     -36.88148182 Ry
     estimated scf accuracy    <       0.00189097 Ry

     iteration #  3     ecut=    80.00 Ry     beta= 0.70
     Davidson diagonalization with overlap
     c_bands:  1 eigenvalues not converged
     c_bands:  1 eigenvalues not converged
     c_bands:  1 eigenvalues not converged
     ethr =  2.36E-05,  avg # of iterations = 10.9

     negative rho (up, down):  3.019E-05 0.000E+00

     total cpu time spent up to now is      133.7 secs

     total energy              =     -36.88174719 Ry
     estimated scf accuracy    <       0.00014772 Ry

     iteration #  4     ecut=    80.00 Ry     beta= 0.70
     Davidson diagonalization with overlap
     c_bands:  1 eigenvalues not converged
     c_bands:  1 eigenvalues not converged
     c_bands:  1 eigenvalues not converged
     c_bands:  1 eigenvalues not converged
     c_bands:  1 eigenvalues not converged
     ethr =  1.85E-06,  avg # of iterations =  4.7

     negative rho (up, down):  3.053E-05 0.000E+00

     total cpu time spent up to now is      167.3 secs

     total energy              =     -36.88175862 Ry
     estimated scf accuracy    <       0.00000184 Ry

     iteration #  5     ecut=    80.00 Ry     beta= 0.70
     Davidson diagonalization with overlap
     ethr =  2.31E-08,  avg # of iterations =  2.7

     negative rho (up, down):  3.052E-05 0.000E+00

     total cpu time spent up to now is      198.1 secs

     total energy              =     -36.88175955 Ry
     estimated scf accuracy    <       0.00000005 Ry

     iteration #  6     ecut=    80.00 Ry     beta= 0.70
     Davidson diagonalization with overlap
     ethr =  6.03E-10,  avg # of iterations =  2.8

     negative rho (up, down):  3.052E-05 0.000E+00

     total cpu time spent up to now is      227.5 secs

     End of self-consistent calculation

     Number of k-points >= 100: set verbosity='high' to print the bands.

     the Fermi energy is    -2.0332 ev

!    total energy              =     -36.88175957 Ry
     total all-electron energy =      -152.409954 Ry
     estimated scf accuracy    <          2.3E-10 Ry
     smearing contrib. (-TS)   =       0.00006197 Ry
     internal energy E=F+TS    =     -36.88182154 Ry

     The total energy is F=E-TS. E is the sum of the following terms:
     one-electron contribution =    -151.36245118 Ry
     hartree contribution      =      77.25143651 Ry
     xc contribution           =      -9.19844539 Ry
     ewald contribution        =      58.75862199 Ry
     one-center paw contrib.   =     -12.33098347 Ry

     convergence has been achieved in   6 iterations

     Writing all to output data dir ./tmp/graphene_0p04.save/ :
     XML data file, charge density, pseudopotentials, collected wavefunctions

     init_run     :     10.58s CPU     11.48s WALL (       1 calls)
     electrons    :    211.88s CPU    215.95s WALL (       1 calls)

     Called by init_run:
     wfcinit      :      8.90s CPU      9.40s WALL (       1 calls)
     potinit      :      0.52s CPU      0.66s WALL (       1 calls)
     hinit0       :      0.82s CPU      0.90s WALL (       1 calls)

     Called by electrons:
     c_bands      :    186.76s CPU    188.61s WALL (       6 calls)
     sum_band     :     22.69s CPU     23.90s WALL (       6 calls)
     v_of_rho     :      1.30s CPU      1.82s WALL (       7 calls)
     newd         :      0.71s CPU      1.40s WALL (       7 calls)
     PAW_pot      :      0.50s CPU      0.51s WALL (       7 calls)
     mix_rho      :      0.15s CPU      0.15s WALL (       6 calls)

     Called by c_bands:
     init_us_2    :      4.54s CPU      4.62s WALL (    3770 calls)
     cegterg      :    181.56s CPU    183.32s WALL (    1740 calls)

     Called by *egterg:
     cdiaghg      :      1.11s CPU      1.14s WALL (   10536 calls)
     h_psi        :    138.58s CPU    140.33s WALL (   10826 calls)
     s_psi        :      9.07s CPU      9.19s WALL (   10826 calls)
     g_psi        :      0.84s CPU      0.85s WALL (    8796 calls)

     Called by h_psi:
     h_psi:calbec :      9.59s CPU      9.68s WALL (   10826 calls)
     vloc_psi     :    119.29s CPU    120.85s WALL (   10826 calls)
                                        0.00s GPU  (   10826 calls)
     add_vuspsi   :      8.99s CPU      9.11s WALL (   10826 calls)

     General routines
     calbec       :     12.19s CPU     12.34s WALL (   12566 calls)
     fft          :      1.30s CPU      1.34s WALL (      89 calls)
     ffts         :      0.25s CPU      0.25s WALL (      13 calls)
     fftw         :    116.44s CPU    117.89s WALL (  108062 calls)
     interpolate  :      0.31s CPU      0.31s WALL (       7 calls)

     Parallel routines

     PWSCF        :   3m42.68s CPU   3m48.74s WALL


   This run was terminated on:   9: 8: 3  12Apr2026            

=------------------------------------------------------------------------------=
   JOB DONE.
=------------------------------------------------------------------------------=
