
     Program PWSCF v.7.5 starts on 13Apr2026 at  0: 9:48 

     This program is part of the open-source Quantum ESPRESSO suite
     for quantum simulation of materials; please cite
         "P. Giannozzi et al., J. Phys.:Condens. Matter 21 395502 (2009);
         "P. Giannozzi et al., J. Phys.:Condens. Matter 29 465901 (2017);
         "P. Giannozzi et al., J. Chem. Phys. 152 154105 (2020);
          URL http://www.quantum-espresso.org", 
     in publications or presentations arising from this work. More details at
     http://www.quantum-espresso.org/quote

     Parallel version (MPI), running on     1 processors

     MPI processes distributed on     1 nodes
     395 MiB available memory on the printing compute node when the environment starts

     Waiting for input...
     Reading input from standard input

     Current dimensions of program PWSCF are:
     Max number of different atomic species (ntypx) = 10
     Max number of k-points (npk) =  40000
     Max angular momentum in pseudopotentials (lmaxx) =  4
     file C.pbe-n-kjpaw_psl.1.0.0.UPF: wavefunction(s)  2S 2P renormalized
     Message from routine setup:
     using ibrav=0 with symmetry is DISCOURAGED, use correct ibrav instead

     Subspace diagonalization in iterative solution of the eigenvalue problem:
     a serial algorithm will be used


     G-vector sticks info
     --------------------
     sticks:   dense  smooth     PW     G-vecs:    dense   smooth      PW
     Sum        1107     553    181               168331    59469   11057

     Using Slab Decomposition



     bravais-lattice index     =            0
     lattice parameter (alat)  =       5.3925  a.u.
     unit-cell volume          =     615.3846 (a.u.)^3
     number of atoms/cell      =            2
     number of atomic types    =            1
     number of electrons       =         8.00
     number of Kohn-Sham states=            8
     kinetic-energy cutoff     =      80.0000  Ry
     charge density cutoff     =     640.0000  Ry
     scf convergence threshold =      1.0E-08
     mixing beta               =       0.7000
     number of iterations used =            8  plain     mixing
     Exchange-correlation= SLA  PW   PBX  PBC
                           (   1   4   3   4   0   0   0)

     celldm(1)=   5.392522  celldm(2)=   0.000000  celldm(3)=   0.000000
     celldm(4)=   0.000000  celldm(5)=   0.000000  celldm(6)=   0.000000

     crystal axes: (cart. coord. in units of alat)
               a(1) = (   1.000000   0.000000   0.000000 )  
               a(2) = (  -0.431034   0.746573   0.000000 )  
               a(3) = (   0.000000   0.000000   5.256518 )  

     reciprocal axes: (cart. coord. in units 2 pi/alat)
               b(1) = (  1.000000  0.577350 -0.000000 )  
               b(2) = (  0.000000  1.339453  0.000000 )  
               b(3) = (  0.000000 -0.000000  0.190240 )  


     PseudoPot. # 1 for C  read from file:
     ./pseudo/C.pbe-n-kjpaw_psl.1.0.0.UPF
     MD5 check sum: 5f16ad9a65e90284d1d834d4ab3b0f7d
     Pseudo is Projector augmented-wave + core cor, Zval =  4.0
     Generated using &quot;atomic&quot; code by A. Dal Corso  v.6.3
     Shape of augmentation charge: PSQ
     Using radial grid of 1073 points,  4 beta functions with: 
                l(1) =   0
                l(2) =   0
                l(3) =   1
                l(4) =   1
     Q(r) pseudized with 0 coefficients 


     atomic species   valence    mass     pseudopotential
     C                 4.00    12.01100     C ( 1.00)

      4 Sym. Ops., with inversion, found ( 2 have fractional translation)



   Cartesian axes

     site n.     atom                  positions (alat units)
         1        C      tau(   1) = (   0.0000000   0.0000000   0.0000000  )
         2        C      tau(   2) = (   0.0459765   0.4977159   0.0000000  )

     number of k points=   290  Marzari-Vanderbilt smearing, width (Ry)=  0.0200

     Number of k-points >= 100: set verbosity='high' to print them.

     Dense  grid:   168331 G-vectors     FFT dimensions: (  45,  45, 240)

     Smooth grid:    59469 G-vectors     FFT dimensions: (  36,  27, 162)

     Estimated max dynamical RAM per process >     484.66 MB

     Initial potential from superposition of free atoms

     starting charge       7.9999, renormalised to       8.0000

     negative rho (up, down):  2.372E-05 0.000E+00
     Starting wfcs are    8 randomized atomic wfcs
     Checking if some PAW data can be deallocated... 

     total cpu time spent up to now is       11.3 secs

     Self-consistent Calculation

     iteration #  1     ecut=    80.00 Ry     beta= 0.70
     Davidson diagonalization with overlap
     ethr =  1.00E-02,  avg # of iterations =  6.1

     negative rho (up, down):  2.058E-05 0.000E+00

     total cpu time spent up to now is       50.4 secs

     total energy              =     -36.78543775 Ry
     estimated scf accuracy    <       0.11582486 Ry

     iteration #  2     ecut=    80.00 Ry     beta= 0.70
     Davidson diagonalization with overlap
     ethr =  1.45E-03,  avg # of iterations =  3.7

     negative rho (up, down):  2.543E-05 0.000E+00

     total cpu time spent up to now is       77.6 secs

     total energy              =     -36.80045414 Ry
     estimated scf accuracy    <       0.00169309 Ry

     iteration #  3     ecut=    80.00 Ry     beta= 0.70
     Davidson diagonalization with overlap
     c_bands:  1 eigenvalues not converged
     c_bands:  1 eigenvalues not converged
     c_bands:  1 eigenvalues not converged
     c_bands:  1 eigenvalues not converged
     c_bands:  1 eigenvalues not converged
     c_bands:  1 eigenvalues not converged
     c_bands:  1 eigenvalues not converged
     c_bands:  1 eigenvalues not converged
     c_bands:  1 eigenvalues not converged
     ethr =  2.12E-05,  avg # of iterations = 10.3

     negative rho (up, down):  2.926E-05 0.000E+00

     total cpu time spent up to now is      126.2 secs

     total energy              =     -36.80066880 Ry
     estimated scf accuracy    <       0.00014160 Ry

     iteration #  4     ecut=    80.00 Ry     beta= 0.70
     Davidson diagonalization with overlap
     c_bands:  1 eigenvalues not converged
     ethr =  1.77E-06,  avg # of iterations =  4.4

     negative rho (up, down):  2.941E-05 0.000E+00

     total cpu time spent up to now is      154.6 secs

     total energy              =     -36.80067926 Ry
     estimated scf accuracy    <       0.00000122 Ry

     iteration #  5     ecut=    80.00 Ry     beta= 0.70
     Davidson diagonalization with overlap
     ethr =  1.52E-08,  avg # of iterations =  3.1

     negative rho (up, down):  2.942E-05 0.000E+00

     total cpu time spent up to now is      183.9 secs

     total energy              =     -36.80068022 Ry
     estimated scf accuracy    <       0.00000003 Ry

     iteration #  6     ecut=    80.00 Ry     beta= 0.70
     Davidson diagonalization with overlap
     ethr =  4.29E-10,  avg # of iterations =  2.8

     negative rho (up, down):  2.941E-05 0.000E+00

     total cpu time spent up to now is      211.8 secs

     End of self-consistent calculation

     Number of k-points >= 100: set verbosity='high' to print the bands.

     the Fermi energy is    -2.4590 ev

!    total energy              =     -36.80068024 Ry
     total all-electron energy =      -152.328875 Ry
     estimated scf accuracy    <          1.7E-09 Ry
     smearing contrib. (-TS)   =       0.00009550 Ry
     internal energy E=F+TS    =     -36.80077574 Ry

     The total energy is F=E-TS. E is the sum of the following terms:
     one-electron contribution =    -135.46936130 Ry
     hartree contribution      =      69.18350457 Ry
     xc contribution           =      -8.97781361 Ry
     ewald contribution        =      50.78783075 Ry
     one-center paw contrib.   =     -12.32493615 Ry

     convergence has been achieved in   6 iterations

     Writing all to output data dir ./tmp/graphene_0p16.save/ :
     XML data file, charge density, pseudopotentials, collected wavefunctions

     init_run     :     10.49s CPU     11.25s WALL (       1 calls)
     electrons    :    197.22s CPU    200.50s WALL (       1 calls)

     Called by init_run:
     wfcinit      :      8.78s CPU      9.27s WALL (       1 calls)
     potinit      :      0.58s CPU      0.67s WALL (       1 calls)
     hinit0       :      0.79s CPU      0.83s WALL (       1 calls)

     Called by electrons:
     c_bands      :    171.88s CPU    173.20s WALL (       6 calls)
     sum_band     :     23.09s CPU     24.16s WALL (       6 calls)
     v_of_rho     :      1.25s CPU      1.63s WALL (       7 calls)
     newd         :      0.68s CPU      1.37s WALL (       7 calls)
     PAW_pot      :      0.42s CPU      0.42s WALL (       7 calls)
     mix_rho      :      0.13s CPU      0.14s WALL (       6 calls)

     Called by c_bands:
     init_us_2    :      4.50s CPU      4.57s WALL (    3770 calls)
     cegterg      :    166.69s CPU    167.94s WALL (    1740 calls)

     Called by *egterg:
     cdiaghg      :      1.00s CPU      1.01s WALL (   10533 calls)
     h_psi        :    125.51s CPU    126.89s WALL (   10823 calls)
     s_psi        :      8.66s CPU      8.73s WALL (   10823 calls)
     g_psi        :      0.83s CPU      0.84s WALL (    8793 calls)

     Called by h_psi:
     h_psi:calbec :      9.56s CPU      9.63s WALL (   10823 calls)
     vloc_psi     :    106.55s CPU    107.81s WALL (   10823 calls)
                                        0.00s GPU  (   10823 calls)
     add_vuspsi   :      8.71s CPU      8.79s WALL (   10823 calls)

     General routines
     calbec       :     12.27s CPU     12.38s WALL (   12563 calls)
     fft          :      1.22s CPU      1.23s WALL (      89 calls)
     ffts         :      0.29s CPU      0.29s WALL (      13 calls)
     fftw         :    103.36s CPU    104.37s WALL (  106488 calls)
     interpolate  :      0.35s CPU      0.35s WALL (       7 calls)

     Parallel routines

     PWSCF        :   3m28.00s CPU   3m32.56s WALL


   This run was terminated on:   0:13:20  13Apr2026            

=------------------------------------------------------------------------------=
   JOB DONE.
=------------------------------------------------------------------------------=
