
     Program PWSCF v.7.5 starts on 12Apr2026 at 12:49:20 

     This program is part of the open-source Quantum ESPRESSO suite
     for quantum simulation of materials; please cite
         "P. Giannozzi et al., J. Phys.:Condens. Matter 21 395502 (2009);
         "P. Giannozzi et al., J. Phys.:Condens. Matter 29 465901 (2017);
         "P. Giannozzi et al., J. Chem. Phys. 152 154105 (2020);
          URL http://www.quantum-espresso.org", 
     in publications or presentations arising from this work. More details at
     http://www.quantum-espresso.org/quote

     Parallel version (MPI), running on     1 processors

     MPI processes distributed on     1 nodes
     2244 MiB available memory on the printing compute node when the environment starts

     Waiting for input...
     Reading input from standard input

     Current dimensions of program PWSCF are:
     Max number of different atomic species (ntypx) = 10
     Max number of k-points (npk) =  40000
     Max angular momentum in pseudopotentials (lmaxx) =  4
     file C.pbe-n-kjpaw_psl.1.0.0.UPF: wavefunction(s)  2S 2P renormalized

     Atomic positions and unit cell read from directory:
     ./tmp/graphene_0p00.save/

     Message from routine setup:
     using ibrav=0 with symmetry is DISCOURAGED, use correct ibrav instead

     Subspace diagonalization in iterative solution of the eigenvalue problem:
     a serial algorithm will be used


     G-vector sticks info
     --------------------
     sticks:   dense  smooth     PW     G-vecs:    dense   smooth      PW
     Sum         955     475    151               145207    51143    8639

     Using Slab Decomposition



     bravais-lattice index     =            0
     lattice parameter (alat)  =       4.6487  a.u.
     unit-cell volume          =     530.5039 (a.u.)^3
     number of atoms/cell      =            2
     number of atomic types    =            1
     number of electrons       =         8.00
     number of Kohn-Sham states=            8
     kinetic-energy cutoff     =      80.0000  Ry
     charge density cutoff     =     640.0000  Ry
     Exchange-correlation= SLA  PW   PBX  PBC
                           (   1   4   3   4   0   0   0)

     celldm(1)=   4.648726  celldm(2)=   0.000000  celldm(3)=   0.000000
     celldm(4)=   0.000000  celldm(5)=   0.000000  celldm(6)=   0.000000

     crystal axes: (cart. coord. in units of alat)
               a(1) = (   1.000000   0.000000   0.000000 )  
               a(2) = (  -0.500000   0.866025   0.000000 )  
               a(3) = (   0.000000   0.000000   6.097561 )  

     reciprocal axes: (cart. coord. in units 2 pi/alat)
               b(1) = (  1.000000  0.577350 -0.000000 )  
               b(2) = (  0.000000  1.154701  0.000000 )  
               b(3) = (  0.000000 -0.000000  0.164000 )  


     PseudoPot. # 1 for C  read from file:
     ./pseudo/C.pbe-n-kjpaw_psl.1.0.0.UPF
     MD5 check sum: 5f16ad9a65e90284d1d834d4ab3b0f7d
     Pseudo is Projector augmented-wave + core cor, Zval =  4.0
     Generated using &quot;atomic&quot; code by A. Dal Corso  v.6.3
     Shape of augmentation charge: PSQ
     Using radial grid of 1073 points,  4 beta functions with: 
                l(1) =   0
                l(2) =   0
                l(3) =   1
                l(4) =   1
     Q(r) pseudized with 0 coefficients 


     atomic species   valence    mass     pseudopotential
     C                 4.00    12.01100     C ( 1.00)

     24 Sym. Ops., with inversion, found (12 have fractional translation)



   Cartesian axes

     site n.     atom                  positions (alat units)
         1        C      tau(   1) = (   0.0000000   0.0000000   0.0000000  )
         2        C      tau(   2) = (  -0.0000005   0.5773504   0.0000000  )

     number of k points=   121  Marzari-Vanderbilt smearing, width (Ry)=  0.0200

     Number of k-points >= 100: set verbosity='high' to print them.

     Dense  grid:   145207 G-vectors     FFT dimensions: (  45,  45, 240)

     Smooth grid:    51143 G-vectors     FFT dimensions: (  27,  27, 162)

     Estimated max dynamical RAM per process >     154.29 MB

     The potential is recalculated from file :
     ./tmp/graphene_0p00.save/charge-density


     negative rho (up, down):  3.032E-05 0.000E+00
     Starting wfcs are    8 randomized atomic wfcs
     Checking if some PAW data can be deallocated... 

     Band Structure Calculation
     Davidson diagonalization with overlap

     ethr =  1.25E-10,  avg # of iterations = 46.7

     total cpu time spent up to now is      106.7 secs

     End of band structure calculation

     Number of k-points >= 100: set verbosity='high' to print the bands.

     Writing all to output data dir ./tmp/graphene_0p00.save/ :
     XML data file, pseudopotentials, collected wavefunctions

     init_run     :      1.51s CPU      1.87s WALL (       1 calls)
     electrons    :    103.77s CPU    104.76s WALL (       1 calls)

     Called by init_run:
     wfcinit      :      0.00s CPU      0.00s WALL (       1 calls)
     potinit      :      0.49s CPU      0.63s WALL (       1 calls)
     hinit0       :      0.82s CPU      0.87s WALL (       1 calls)

     Called by electrons:
     c_bands      :    103.77s CPU    104.76s WALL (       1 calls)
     v_of_rho     :      0.19s CPU      0.30s WALL (       1 calls)
     newd         :      0.10s CPU      0.22s WALL (       1 calls)
     PAW_pot      :      0.06s CPU      0.06s WALL (       1 calls)

     Called by c_bands:
     init_us_2    :      0.08s CPU      0.13s WALL (     121 calls)
     cegterg      :     99.98s CPU    100.75s WALL (     345 calls)

     Called by *egterg:
     cdiaghg      :      0.65s CPU      0.66s WALL (    5766 calls)
     h_psi        :     70.08s CPU     70.64s WALL (    6111 calls)
     s_psi        :      4.67s CPU      4.73s WALL (    6111 calls)
     g_psi        :      0.59s CPU      0.59s WALL (    5645 calls)

     Called by h_psi:
     h_psi:calbec :      4.99s CPU      5.02s WALL (    6111 calls)
     vloc_psi     :     60.05s CPU     60.54s WALL (    6111 calls)
                                        0.00s GPU  (    6111 calls)
     add_vuspsi   :      4.70s CPU      4.75s WALL (    6111 calls)

     General routines
     calbec       :      4.95s CPU      4.99s WALL (    6111 calls)
     fft          :      0.72s CPU      0.74s WALL (      13 calls)
     ffts         :      0.22s CPU      0.22s WALL (       1 calls)
     fftw         :     52.65s CPU     53.13s WALL (   52990 calls)
     interpolate  :      0.23s CPU      0.23s WALL (       1 calls)
     davcio       :      0.15s CPU      0.26s WALL (     242 calls)

     Parallel routines

     PWSCF        :   1m45.43s CPU   1m47.19s WALL


   This run was terminated on:  12:51: 7  12Apr2026            

=------------------------------------------------------------------------------=
   JOB DONE.
=------------------------------------------------------------------------------=
