
     Program BANDS v.7.5 starts on 11Apr2026 at 21: 3: 3 

     This program is part of the open-source Quantum ESPRESSO suite
     for quantum simulation of materials; please cite
         "P. Giannozzi et al., J. Phys.:Condens. Matter 21 395502 (2009);
         "P. Giannozzi et al., J. Phys.:Condens. Matter 29 465901 (2017);
         "P. Giannozzi et al., J. Chem. Phys. 152 154105 (2020);
          URL http://www.quantum-espresso.org", 
     in publications or presentations arising from this work. More details at
     http://www.quantum-espresso.org/quote

     Parallel version (MPI), running on     1 processors

     MPI processes distributed on     1 nodes
     1975 MiB available memory on the printing compute node when the environment starts


     Reading xml data from directory:

     ./tmp/graphene_0p02_bands.save/
     file C.pbe-n-kjpaw_psl.1.0.0.UPF: wavefunction(s)  2S 2P renormalized

     IMPORTANT: XC functional enforced from input :
     Exchange-correlation= PBE
                           (   1   4   3   4   0   0   0)
     Any further DFT definition will be discarded
     Please, verify this is what you really want


     G-vector sticks info
     --------------------
     sticks:   dense  smooth     PW     G-vecs:    dense   smooth      PW
     Sum         971     489    151               147883    52313    8775

     Using Slab Decomposition


     negative rho (up, down):  3.058E-05 0.000E+00
     Reading collected, re-writing distributed wavefunctions
     high-symmetry point:  0.0000 0.0000 0.0000   x coordinate   0.0000
     high-symmetry point:  0.5000 0.2887 0.0000   x coordinate   0.5774
     high-symmetry point:  0.3333 0.5850 0.0000   x coordinate   0.9173
     high-symmetry point:  0.0000 0.0000 0.0000   x coordinate   1.5906

     Plottable bands (eV) written to file graphene_strain_0p02.bands.dat.gnu
     Bands written to file graphene_strain_0p02.bands.dat

 **************************************************************************

                    xk=(   0.00000,   0.00000,   0.00000  )

     point group C_2h (2/m) 
     there are  4 classes
     the character table:

       E     C2    i     s_h  
A_g    1.00  1.00  1.00  1.00
B_g    1.00 -1.00  1.00 -1.00
A_u    1.00  1.00 -1.00 -1.00
B_u    1.00 -1.00 -1.00  1.00

     the symmetry operations in each class and the name of the first element:

     E        1
                                                                 
     C2       2
                                                                 
     i        3
                                                                 
     s_h      4
                                                                 

     Band symmetry, C_2h (2/m)  point group:

     e(  1 -  1) =    -21.15568  eV     1   --> A_g            
     e(  2 -  2) =     -9.27870  eV     1   --> A_u            
     e(  3 -  3) =     -4.97402  eV     1   --> A_g            
     e(  4 -  4) =     -4.75907  eV     1   --> A_g            
     e(  5 -  5) =      1.48566  eV     1   --> A_g            
     e(  6 -  6) =      2.36391  eV     1   --> A_u            
     e(  7 -  7) =      2.75627  eV     1   --> A_g            
     e(  8 -  8) =      4.66849  eV     1   --> A_u            

 **************************************************************************

 **************************************************************************

                    xk=(   0.01250,   0.00722,   0.00000  )

     point group C_s (m)    
     there are  2 classes
     the character table:

       E     s    
A'     1.00  1.00
A''    1.00 -1.00

     the symmetry operations in each class and the name of the first element:

     E        1
                                                                 
     s        2
                                                                 

     Band symmetry, C_s (m)     point group:

     e(  1 -  1) =    -21.15211  eV     1   --> A'             
     e(  2 -  2) =     -9.27445  eV     1   --> A''            
     e(  3 -  3) =     -4.98927  eV     1   --> A'             
     e(  4 -  4) =     -4.76715  eV     1   --> A'             
     e(  5 -  5) =      1.49050  eV     1   --> A'             
     e(  6 -  6) =      2.36880  eV     1   --> A''            
     e(  7 -  7) =      2.76119  eV     1   --> A'             
     e(  8 -  8) =      4.67333  eV     1   --> A''            

 **************************************************************************

 **************************************************************************

                    xk=(   0.02500,   0.01443,   0.00000  )

     Band symmetry, C_s (m)     point group:

     e(  1 -  1) =    -21.14142  eV     1   --> A'             
     e(  2 -  2) =     -9.26170  eV     1   --> A''            
     e(  3 -  3) =     -5.03499  eV     1   --> A'             
     e(  4 -  4) =     -4.79102  eV     1   --> A'             
     e(  5 -  5) =      1.50502  eV     1   --> A'             
     e(  6 -  6) =      2.38346  eV     1   --> A''            
     e(  7 -  7) =      2.77596  eV     1   --> A'             
     e(  8 -  8) =      4.68787  eV     1   --> A''            

 **************************************************************************

 **************************************************************************

                    xk=(   0.03750,   0.02165,   0.00000  )

     Band symmetry, C_s (m)     point group:

     e(  1 -  1) =    -21.12359  eV     1   --> A'             
     e(  2 -  2) =     -9.24048  eV     1   --> A''            
     e(  3 -  3) =     -5.11088  eV     1   --> A'             
     e(  4 -  4) =     -4.82975  eV     1   --> A'             
     e(  5 -  5) =      1.52923  eV     1   --> A'             
     e(  6 -  6) =      2.40789  eV     1   --> A''            
     e(  7 -  7) =      2.80058  eV     1   --> A'             
     e(  8 -  8) =      4.71210  eV     1   --> A''            

 **************************************************************************

 **************************************************************************

                    xk=(   0.05000,   0.02887,   0.00000  )

     Band symmetry, C_s (m)     point group:

     e(  1 -  1) =    -21.09864  eV     1   --> A'             
     e(  2 -  2) =     -9.21077  eV     1   --> A''            
     e(  3 -  3) =     -5.21616  eV     1   --> A'             
     e(  4 -  4) =     -4.88223  eV     1   --> A'             
     e(  5 -  5) =      1.56313  eV     1   --> A'             
     e(  6 -  6) =      2.44209  eV     1   --> A''            
     e(  7 -  7) =      2.83504  eV     1   --> A'             
     e(  8 -  8) =      4.74602  eV     1   --> A''            

 **************************************************************************

 **************************************************************************

                    xk=(   0.06250,   0.03608,   0.00000  )

     Band symmetry, C_s (m)     point group:

     e(  1 -  1) =    -21.06657  eV     1   --> A'             
     e(  2 -  2) =     -9.17261  eV     1   --> A''            
     e(  3 -  3) =     -5.34945  eV     1   --> A'             
     e(  4 -  4) =     -4.94732  eV     1   --> A'             
     e(  5 -  5) =      1.60673  eV     1   --> A'             
     e(  6 -  6) =      2.48605  eV     1   --> A''            
     e(  7 -  7) =      2.87936  eV     1   --> A'             
     e(  8 -  8) =      4.78960  eV     1   --> A''            

 **************************************************************************

 **************************************************************************

                    xk=(   0.07500,   0.04330,   0.00000  )

     Band symmetry, C_s (m)     point group:

     e(  1 -  1) =    -21.02739  eV     1   --> A'             
     e(  2 -  2) =     -9.12601  eV     1   --> A''            
     e(  3 -  3) =     -5.50891  eV     1   --> A'             
     e(  4 -  4) =     -5.02389  eV     1   --> A'             
     e(  5 -  5) =      1.66001  eV     1   --> A'             
     e(  6 -  6) =      2.53977  eV     1   --> A''            
     e(  7 -  7) =      2.93353  eV     1   --> A'             
     e(  8 -  8) =      4.84285  eV     1   --> A''            

 **************************************************************************

 **************************************************************************

                    xk=(   0.08750,   0.05052,   0.00000  )

     Band symmetry, C_s (m)     point group:

     e(  1 -  1) =    -20.98111  eV     1   --> A'             
     e(  2 -  2) =     -9.07101  eV     1   --> A''            
     e(  3 -  3) =     -5.69245  eV     1   --> A'             
     e(  4 -  4) =     -5.11076  eV     1   --> A'             
     e(  5 -  5) =      1.72300  eV     1   --> A'             
     e(  6 -  6) =      2.60324  eV     1   --> A''            
     e(  7 -  7) =      2.99756  eV     1   --> A'             
     e(  8 -  8) =      4.90575  eV     1   --> A''            

 **************************************************************************

 **************************************************************************

                    xk=(   0.10000,   0.05774,   0.00000  )

     Band symmetry, C_s (m)     point group:

     e(  1 -  1) =    -20.92775  eV     1   --> A'             
     e(  2 -  2) =     -9.00764  eV     1   --> A''            
     e(  3 -  3) =     -5.89783  eV     1   --> A'             
     e(  4 -  4) =     -5.20672  eV     1   --> A'             
     e(  5 -  5) =      1.79568  eV     1   --> A'             
     e(  6 -  6) =      2.67644  eV     1   --> A''            
     e(  7 -  7) =      3.07144  eV     1   --> A'             
     e(  8 -  8) =      4.97826  eV     1   --> A''            

 **************************************************************************

 **************************************************************************

                    xk=(   0.11250,   0.06495,   0.00000  )

     Band symmetry, C_s (m)     point group:

     e(  1 -  1) =    -20.86731  eV     1   --> A'             
     e(  2 -  2) =     -8.93594  eV     1   --> A''            
     e(  3 -  3) =     -6.12280  eV     1   --> A'             
     e(  4 -  4) =     -5.31050  eV     1   --> A'             
     e(  5 -  5) =      1.87806  eV     1   --> A'             
     e(  6 -  6) =      2.75937  eV     1   --> A''            
     e(  7 -  7) =      3.15519  eV     1   --> A'             
     e(  8 -  8) =      5.06037  eV     1   --> A''            

 **************************************************************************

 **************************************************************************

                    xk=(   0.12500,   0.07217,   0.00000  )

     Band symmetry, C_s (m)     point group:

     e(  1 -  1) =    -20.79981  eV     1   --> A'             
     e(  2 -  2) =     -8.85596  eV     1   --> A''            
     e(  3 -  3) =     -6.36518  eV     1   --> A'             
     e(  4 -  4) =     -5.42087  eV     1   --> A'             
     e(  5 -  5) =      1.97014  eV     1   --> A'             
     e(  6 -  6) =      2.85199  eV     1   --> A''            
     e(  7 -  7) =      3.24879  eV     1   --> A'             
     e(  8 -  8) =      5.15200  eV     1   --> A''            

 **************************************************************************

 **************************************************************************

                    xk=(   0.13750,   0.07939,   0.00000  )

     Band symmetry, C_s (m)     point group:

     e(  1 -  1) =    -20.72527  eV     1   --> A'             
     e(  2 -  2) =     -8.76775  eV     1   --> A''            
     e(  3 -  3) =     -6.62286  eV     1   --> A'             
     e(  4 -  4) =     -5.53658  eV     1   --> A'             
     e(  5 -  5) =      2.07191  eV     1   --> A'             
     e(  6 -  6) =      2.95430  eV     1   --> A''            
     e(  7 -  7) =      3.35224  eV     1   --> A'             
     e(  8 -  8) =      5.25310  eV     1   --> A''            

 **************************************************************************

 **************************************************************************

                    xk=(   0.15000,   0.08660,   0.00000  )

     Band symmetry, C_s (m)     point group:

     e(  1 -  1) =    -20.64371  eV     1   --> A'             
     e(  2 -  2) =     -8.67138  eV     1   --> A''            
     e(  3 -  3) =     -6.89386  eV     1   --> A'             
     e(  4 -  4) =     -5.65646  eV     1   --> A'             
     e(  5 -  5) =      2.18336  eV     1   --> A'             
     e(  6 -  6) =      3.06625  eV     1   --> A''            
     e(  7 -  7) =      3.46555  eV     1   --> A'             
     e(  8 -  8) =      5.36352  eV     1   --> A''            

 **************************************************************************

 **************************************************************************

                    xk=(   0.16250,   0.09382,   0.00000  )

     Band symmetry, C_s (m)     point group:

     e(  1 -  1) =    -20.55515  eV     1   --> A'             
     e(  2 -  2) =     -8.56692  eV     1   --> A''            
     e(  3 -  3) =     -7.17636  eV     1   --> A'             
     e(  4 -  4) =     -5.77938  eV     1   --> A'             
     e(  5 -  5) =      2.30449  eV     1   --> A'             
     e(  6 -  6) =      3.18779  eV     1   --> A''            
     e(  7 -  7) =      3.58871  eV     1   --> A'             
     e(  8 -  8) =      5.48302  eV     1   --> A''            

 **************************************************************************

 **************************************************************************

                    xk=(   0.17500,   0.10104,   0.00000  )

     Band symmetry, C_s (m)     point group:

     e(  1 -  1) =    -20.45962  eV     1   --> A'             
     e(  2 -  2) =     -8.45446  eV     1   --> A''            
     e(  3 -  3) =     -7.46865  eV     1   --> A'             
     e(  4 -  4) =     -5.90429  eV     1   --> A'             
     e(  5 -  5) =      2.43528  eV     1   --> A'             
     e(  6 -  6) =      3.31887  eV     1   --> A''            
     e(  7 -  7) =      3.72171  eV     1   --> A'             
     e(  8 -  8) =      5.61109  eV     1   --> A''            

 **************************************************************************

 **************************************************************************

                    xk=(   0.18750,   0.10825,   0.00000  )

     Band symmetry, C_s (m)     point group:

     e(  1 -  1) =    -20.35716  eV     1   --> A'             
     e(  2 -  2) =     -8.33409  eV     1   --> A''            
     e(  3 -  3) =     -7.76920  eV     1   --> A'             
     e(  4 -  4) =     -6.03023  eV     1   --> A'             
     e(  5 -  5) =      2.57574  eV     1   --> A'             
     e(  6 -  6) =      3.45936  eV     1   --> A''            
     e(  7 -  7) =      3.86456  eV     1   --> A'             
     e(  8 -  8) =      5.74634  eV     1   --> A''            

 **************************************************************************

 **************************************************************************

                    xk=(   0.20000,   0.11547,   0.00000  )

     Band symmetry, C_s (m)     point group:

     e(  1 -  1) =    -20.24778  eV     1   --> A'             
     e(  2 -  2) =     -8.20593  eV     1   --> A''            
     e(  3 -  3) =     -8.07659  eV     1   --> A'             
     e(  4 -  4) =     -6.15631  eV     1   --> A'             
     e(  5 -  5) =      2.72583  eV     1   --> A'             
     e(  6 -  6) =      3.60910  eV     1   --> A''            
     e(  7 -  7) =      4.01723  eV     1   --> A'             
     e(  8 -  8) =      5.88364  eV     1   --> A''            

 **************************************************************************

 **************************************************************************

                    xk=(   0.21250,   0.12269,   0.00000  )

     Band symmetry, C_s (m)     point group:

     e(  1 -  1) =    -20.13153  eV     1   --> A'             
     e(  2 -  2) =     -8.38953  eV     1   --> A'             
     e(  3 -  3) =     -8.07011  eV     1   --> A''            
     e(  4 -  4) =     -6.28171  eV     1   --> A'             
     e(  5 -  5) =      2.88554  eV     1   --> A'             
     e(  6 -  6) =      3.76776  eV     1   --> A''            
     e(  7 -  7) =      4.17972  eV     1   --> A'             
     e(  8 -  8) =      5.98499  eV     1   --> A''            

 **************************************************************************

 **************************************************************************

                    xk=(   0.22500,   0.12990,   0.00000  )

     Band symmetry, C_s (m)     point group:

     e(  1 -  1) =    -20.00845  eV     1   --> A'             
     e(  2 -  2) =     -8.70688  eV     1   --> A'             
     e(  3 -  3) =     -7.92676  eV     1   --> A''            
     e(  4 -  4) =     -6.40570  eV     1   --> A'             
     e(  5 -  5) =      3.05486  eV     1   --> A'             
     e(  6 -  6) =      3.93473  eV     1   --> A''            
     e(  7 -  7) =      4.35202  eV     1   --> A'             
     e(  8 -  8) =      5.84067  eV     1   --> A''            

 **************************************************************************

 **************************************************************************

                    xk=(   0.23750,   0.13712,   0.00000  )

     Band symmetry, C_s (m)     point group:

     e(  1 -  1) =    -19.87858  eV     1   --> A'             
     e(  2 -  2) =     -9.02757  eV     1   --> A'             
     e(  3 -  3) =     -7.77607  eV     1   --> A''            
     e(  4 -  4) =     -6.52761  eV     1   --> A'             
     e(  5 -  5) =      3.23375  eV     1   --> A'             
     e(  6 -  6) =      4.10845  eV     1   --> A''            
     e(  7 -  7) =      4.53409  eV     1   --> A'             
     e(  8 -  8) =      5.54837  eV     1   --> A''            

 **************************************************************************

 **************************************************************************

                    xk=(   0.25000,   0.14434,   0.00000  )

     Band symmetry, C_s (m)     point group:

     e(  1 -  1) =    -19.74198  eV     1   --> A'             
     e(  2 -  2) =     -9.35065  eV     1   --> A'             
     e(  3 -  3) =     -7.61822  eV     1   --> A''            
     e(  4 -  4) =     -6.64685  eV     1   --> A'             
     e(  5 -  5) =      3.42220  eV     1   --> A'             
     e(  6 -  6) =      4.28412  eV     1   --> A''            
     e(  7 -  7) =      4.72591  eV     1   --> A'             
     e(  8 -  8) =      5.24015  eV     1   --> A''            

 **************************************************************************

 **************************************************************************

                    xk=(   0.26250,   0.15155,   0.00000  )

     Band symmetry, C_s (m)     point group:

     e(  1 -  1) =    -19.59870  eV     1   --> A'             
     e(  2 -  2) =     -9.67525  eV     1   --> A'             
     e(  3 -  3) =     -7.45344  eV     1   --> A''            
     e(  4 -  4) =     -6.76288  eV     1   --> A'             
     e(  5 -  5) =      3.62015  eV     1   --> A'             
     e(  6 -  6) =      4.43755  eV     1   --> A''            
     e(  7 -  7) =      4.92740  eV     1   --> A'             
     e(  8 -  8) =      4.95514  eV     1   --> A''            

 **************************************************************************

 **************************************************************************

                    xk=(   0.27500,   0.15877,   0.00000  )

     Band symmetry, C_s (m)     point group:

     e(  1 -  1) =    -19.44881  eV     1   --> A'             
     e(  2 -  2) =    -10.00057  eV     1   --> A'             
     e(  3 -  3) =     -7.28201  eV     1   --> A''            
     e(  4 -  4) =     -6.87522  eV     1   --> A'             
     e(  5 -  5) =      3.82757  eV     1   --> A'             
     e(  6 -  6) =      4.41385  eV     1   --> A''            
     e(  7 -  7) =      4.85203  eV     1   --> A''            
     e(  8 -  8) =      5.13844  eV     1   --> A'             

 **************************************************************************

 **************************************************************************

                    xk=(   0.28750,   0.16599,   0.00000  )

     Band symmetry, C_s (m)     point group:

     e(  1 -  1) =    -19.29238  eV     1   --> A'             
     e(  2 -  2) =    -10.32590  eV     1   --> A'             
     e(  3 -  3) =     -7.10423  eV     1   --> A''            
     e(  4 -  4) =     -6.98342  eV     1   --> A'             
     e(  5 -  5) =      4.04440  eV     1   --> A'             
     e(  6 -  6) =      4.14560  eV     1   --> A''            
     e(  7 -  7) =      5.00028  eV     1   --> A''            
     e(  8 -  8) =      5.35879  eV     1   --> A'             

 **************************************************************************

 **************************************************************************

                    xk=(   0.30000,   0.17321,   0.00000  )

     Band symmetry, C_s (m)     point group:

     e(  1 -  1) =    -19.12951  eV     1   --> A'             
     e(  2 -  2) =    -10.65056  eV     1   --> A'             
     e(  3 -  3) =     -7.08712  eV     1   --> A'             
     e(  4 -  4) =     -6.92049  eV     1   --> A''            
     e(  5 -  5) =      3.82415  eV     1   --> A''            
     e(  6 -  6) =      4.27054  eV     1   --> A'             
     e(  7 -  7) =      5.21000  eV     1   --> A''            
     e(  8 -  8) =      5.58777  eV     1   --> A'             

 **************************************************************************

 **************************************************************************

                    xk=(   0.31250,   0.18042,   0.00000  )

     Band symmetry, C_s (m)     point group:

     e(  1 -  1) =    -18.96030  eV     1   --> A'             
     e(  2 -  2) =    -10.97393  eV     1   --> A'             
     e(  3 -  3) =     -7.18595  eV     1   --> A'             
     e(  4 -  4) =     -6.73123  eV     1   --> A''            
     e(  5 -  5) =      3.49215  eV     1   --> A''            
     e(  6 -  6) =      4.50585  eV     1   --> A'             
     e(  7 -  7) =      5.43992  eV     1   --> A''            
     e(  8 -  8) =      5.82281  eV     1   --> A'             

 **************************************************************************

 **************************************************************************

                    xk=(   0.32500,   0.18764,   0.00000  )

     Band symmetry, C_s (m)     point group:

     e(  1 -  1) =    -18.78487  eV     1   --> A'             
     e(  2 -  2) =    -11.29541  eV     1   --> A'             
     e(  3 -  3) =     -7.27962  eV     1   --> A'             
     e(  4 -  4) =     -6.53699  eV     1   --> A''            
     e(  5 -  5) =      3.15795  eV     1   --> A''            
     e(  6 -  6) =      4.75010  eV     1   --> A'             
     e(  7 -  7) =      5.68298  eV     1   --> A''            
     e(  8 -  8) =      6.04343  eV     1   --> A'             

 **************************************************************************

 **************************************************************************

                    xk=(   0.33750,   0.19486,   0.00000  )

     Band symmetry, C_s (m)     point group:

     e(  1 -  1) =    -18.60336  eV     1   --> A'             
     e(  2 -  2) =    -11.61446  eV     1   --> A'             
     e(  3 -  3) =     -7.36785  eV     1   --> A'             
     e(  4 -  4) =     -6.33844  eV     1   --> A''            
     e(  5 -  5) =      2.82491  eV     1   --> A''            
     e(  6 -  6) =      5.00286  eV     1   --> A'             
     e(  7 -  7) =      5.93714  eV     1   --> A''            
     e(  8 -  8) =      6.11244  eV     1   --> A'             

 **************************************************************************

 **************************************************************************

                    xk=(   0.35000,   0.20207,   0.00000  )

     Band symmetry, C_s (m)     point group:

     e(  1 -  1) =    -18.41598  eV     1   --> A'             
     e(  2 -  2) =    -11.93049  eV     1   --> A'             
     e(  3 -  3) =     -7.45039  eV     1   --> A'             
     e(  4 -  4) =     -6.13638  eV     1   --> A''            
     e(  5 -  5) =      2.49527  eV     1   --> A''            
     e(  6 -  6) =      5.26305  eV     1   --> A'             
     e(  7 -  7) =      6.09399  eV     1   --> A'             
     e(  8 -  8) =      6.20155  eV     1   --> A''            

 **************************************************************************

 **************************************************************************

                    xk=(   0.36250,   0.20929,   0.00000  )

     Band symmetry, C_s (m)     point group:

     e(  1 -  1) =    -18.22294  eV     1   --> A'             
     e(  2 -  2) =    -12.24297  eV     1   --> A'             
     e(  3 -  3) =     -7.52703  eV     1   --> A'             
     e(  4 -  4) =     -5.93183  eV     1   --> A''            
     e(  5 -  5) =      2.17096  eV     1   --> A''            
     e(  6 -  6) =      5.52739  eV     1   --> A'             
     e(  7 -  7) =      6.07286  eV     1   --> A'             
     e(  8 -  8) =      6.47580  eV     1   --> A''            

 **************************************************************************

 **************************************************************************

                    xk=(   0.37500,   0.21651,   0.00000  )

     Band symmetry, C_s (m)     point group:

     e(  1 -  1) =    -18.02457  eV     1   --> A'             
     e(  2 -  2) =    -12.55128  eV     1   --> A'             
     e(  3 -  3) =     -7.59758  eV     1   --> A'             
     e(  4 -  4) =     -5.72606  eV     1   --> A''            
     e(  5 -  5) =      1.85397  eV     1   --> A''            
     e(  6 -  6) =      5.77904  eV     1   --> A'             
     e(  7 -  7) =      6.07355  eV     1   --> A'             
     e(  8 -  8) =      6.75961  eV     1   --> A''            

 **************************************************************************

 **************************************************************************

                    xk=(   0.38750,   0.22372,   0.00000  )

     Band symmetry, C_s (m)     point group:

     e(  1 -  1) =    -17.82127  eV     1   --> A'             
     e(  2 -  2) =    -12.85476  eV     1   --> A'             
     e(  3 -  3) =     -7.66188  eV     1   --> A'             
     e(  4 -  4) =     -5.52067  eV     1   --> A''            
     e(  5 -  5) =      1.54648  eV     1   --> A''            
     e(  6 -  6) =      5.92072  eV     1   --> A'             
     e(  7 -  7) =      6.19489  eV     1   --> A'             
     e(  8 -  8) =      7.05279  eV     1   --> A''            

 **************************************************************************

 **************************************************************************

                    xk=(   0.40000,   0.23094,   0.00000  )

     Band symmetry, C_s (m)     point group:

     e(  1 -  1) =    -17.61363  eV     1   --> A'             
     e(  2 -  2) =    -13.15261  eV     1   --> A'             
     e(  3 -  3) =     -7.71977  eV     1   --> A'             
     e(  4 -  4) =     -5.31773  eV     1   --> A''            
     e(  5 -  5) =      1.25101  eV     1   --> A''            
     e(  6 -  6) =      5.93188  eV     1   --> A'             
     e(  7 -  7) =      6.45800  eV     1   --> A'             
     e(  8 -  8) =      7.35515  eV     1   --> A''            

 **************************************************************************

 **************************************************************************

                    xk=(   0.41250,   0.23816,   0.00000  )

     Band symmetry, C_s (m)     point group:

     e(  1 -  1) =    -17.40247  eV     1   --> A'             
     e(  2 -  2) =    -13.44379  eV     1   --> A'             
     e(  3 -  3) =     -7.77113  eV     1   --> A'             
     e(  4 -  4) =     -5.11986  eV     1   --> A''            
     e(  5 -  5) =      0.97062  eV     1   --> A''            
     e(  6 -  6) =      5.91819  eV     1   --> A'             
     e(  7 -  7) =      6.75745  eV     1   --> A'             
     e(  8 -  8) =      7.66651  eV     1   --> A''            

 **************************************************************************

 **************************************************************************

                    xk=(   0.42500,   0.24537,   0.00000  )

     Band symmetry, C_s (m)     point group:

     e(  1 -  1) =    -17.18910  eV     1   --> A'             
     e(  2 -  2) =    -13.72684  eV     1   --> A'             
     e(  3 -  3) =     -7.81585  eV     1   --> A'             
     e(  4 -  4) =     -4.93044  eV     1   --> A''            
     e(  5 -  5) =      0.70902  eV     1   --> A''            
     e(  6 -  6) =      5.90135  eV     1   --> A'             
     e(  7 -  7) =      7.07167  eV     1   --> A'             
     e(  8 -  8) =      7.98667  eV     1   --> A''            

 **************************************************************************

 **************************************************************************

                    xk=(   0.43750,   0.25259,   0.00000  )

     Band symmetry, C_s (m)     point group:

     e(  1 -  1) =    -16.97559  eV     1   --> A'             
     e(  2 -  2) =    -13.99953  eV     1   --> A'             
     e(  3 -  3) =     -7.85385  eV     1   --> A'             
     e(  4 -  4) =     -4.75377  eV     1   --> A''            
     e(  5 -  5) =      0.47079  eV     1   --> A''            
     e(  6 -  6) =      5.88540  eV     1   --> A'             
     e(  7 -  7) =      7.39660  eV     1   --> A'             
     e(  8 -  8) =      8.31539  eV     1   --> A''            

 **************************************************************************

 **************************************************************************

                    xk=(   0.45000,   0.25981,   0.00000  )

     Band symmetry, C_s (m)     point group:

     e(  1 -  1) =    -16.76553  eV     1   --> A'             
     e(  2 -  2) =    -14.25818  eV     1   --> A'             
     e(  3 -  3) =     -7.88503  eV     1   --> A'             
     e(  4 -  4) =     -4.59517  eV     1   --> A''            
     e(  5 -  5) =      0.26151  eV     1   --> A''            
     e(  6 -  6) =      5.87161  eV     1   --> A'             
     e(  7 -  7) =      7.73083  eV     1   --> A'             
     e(  8 -  8) =      8.65235  eV     1   --> A''            

 **************************************************************************

 **************************************************************************

                    xk=(   0.46250,   0.26702,   0.00000  )

     Band symmetry, C_s (m)     point group:

     e(  1 -  1) =    -16.56550  eV     1   --> A'             
     e(  2 -  2) =    -14.49610  eV     1   --> A'             
     e(  3 -  3) =     -7.90935  eV     1   --> A'             
     e(  4 -  4) =     -4.46093  eV     1   --> A''            
     e(  5 -  5) =      0.08766  eV     1   --> A''            
     e(  6 -  6) =      5.86056  eV     1   --> A'             
     e(  7 -  7) =      8.07352  eV     1   --> A'             
     e(  8 -  8) =      8.99706  eV     1   --> A''            

 **************************************************************************

 **************************************************************************

                    xk=(   0.47500,   0.27424,   0.00000  )

     Band symmetry, C_s (m)     point group:

     e(  1 -  1) =    -16.38812  eV     1   --> A'             
     e(  2 -  2) =    -14.70059  eV     1   --> A'             
     e(  3 -  3) =     -7.92675  eV     1   --> A'             
     e(  4 -  4) =     -4.35799  eV     1   --> A''            
     e(  5 -  5) =     -0.04370  eV     1   --> A''            
     e(  6 -  6) =      5.85251  eV     1   --> A'             
     e(  7 -  7) =      8.42364  eV     1   --> A'             
     e(  8 -  8) =      9.34859  eV     1   --> A''            

 **************************************************************************

 **************************************************************************

                    xk=(   0.48750,   0.28146,   0.00000  )

     Band symmetry, C_s (m)     point group:

     e(  1 -  1) =    -16.25708  eV     1   --> A'             
     e(  2 -  2) =    -14.84791  eV     1   --> A'             
     e(  3 -  3) =     -7.93721  eV     1   --> A'             
     e(  4 -  4) =     -4.29291  eV     1   --> A''            
     e(  5 -  5) =     -0.12585  eV     1   --> A''            
     e(  6 -  6) =      5.84763  eV     1   --> A'             
     e(  7 -  7) =      8.77826  eV     1   --> A'             
     e(  8 -  8) =      9.53723  eV     1   --> A'             

 **************************************************************************

 **************************************************************************

                    xk=(   0.50000,   0.28868,   0.00000  )

     zone border point and non-symmorphic group 
     symmetry decomposition not available

 **************************************************************************

 **************************************************************************

                    xk=(   0.49583,   0.29608,   0.00000  )

     point group C_s (m)    
     there are  2 classes
     the character table:

       E     s    
A'     1.00  1.00
A''    1.00 -1.00

     the symmetry operations in each class and the name of the first element:

     E        1
                                                                 
     s        2
                                                                 

     Band symmetry, C_s (m)     point group:

     e(  1 -  1) =    -16.20573  eV     1   --> A'             
     e(  2 -  2) =    -14.90257  eV     1   --> A'             
     e(  3 -  3) =     -7.94637  eV     1   --> A'             
     e(  4 -  4) =     -4.26911  eV     1   --> A''            
     e(  5 -  5) =     -0.15410  eV     1   --> A''            
     e(  6 -  6) =      5.85360  eV     1   --> A'             
     e(  7 -  7) =      9.07000  eV     1   --> A'             
     e(  8 -  8) =      9.24262  eV     1   --> A'             

 **************************************************************************

 **************************************************************************

                    xk=(   0.49167,   0.30349,   0.00000  )

     Band symmetry, C_s (m)     point group:

     e(  1 -  1) =    -16.20253  eV     1   --> A'             
     e(  2 -  2) =    -14.89939  eV     1   --> A'             
     e(  3 -  3) =     -7.96337  eV     1   --> A'             
     e(  4 -  4) =     -4.26461  eV     1   --> A''            
     e(  5 -  5) =     -0.15487  eV     1   --> A''            
     e(  6 -  6) =      5.87636  eV     1   --> A'             
     e(  7 -  7) =      9.07420  eV     1   --> A'             
     e(  8 -  8) =      9.24743  eV     1   --> A'             

 **************************************************************************

 **************************************************************************

                    xk=(   0.48750,   0.31090,   0.00000  )

     Band symmetry, C_s (m)     point group:

     e(  1 -  1) =    -16.19719  eV     1   --> A'             
     e(  2 -  2) =    -14.89409  eV     1   --> A'             
     e(  3 -  3) =     -7.99155  eV     1   --> A'             
     e(  4 -  4) =     -4.25710  eV     1   --> A''            
     e(  5 -  5) =     -0.15616  eV     1   --> A''            
     e(  6 -  6) =      5.91416  eV     1   --> A'             
     e(  7 -  7) =      9.08121  eV     1   --> A'             
     e(  8 -  8) =      9.25545  eV     1   --> A'             

 **************************************************************************

 **************************************************************************

                    xk=(   0.48333,   0.31831,   0.00000  )

     Band symmetry, C_s (m)     point group:

     e(  1 -  1) =    -16.18972  eV     1   --> A'             
     e(  2 -  2) =    -14.88668  eV     1   --> A'             
     e(  3 -  3) =     -8.03070  eV     1   --> A'             
     e(  4 -  4) =     -4.24660  eV     1   --> A''            
     e(  5 -  5) =     -0.15801  eV     1   --> A''            
     e(  6 -  6) =      5.96675  eV     1   --> A'             
     e(  7 -  7) =      9.09102  eV     1   --> A'             
     e(  8 -  8) =      9.26668  eV     1   --> A'             

 **************************************************************************

 **************************************************************************

                    xk=(   0.47916,   0.32571,   0.00000  )

     Band symmetry, C_s (m)     point group:

     e(  1 -  1) =    -16.18011  eV     1   --> A'             
     e(  2 -  2) =    -14.87716  eV     1   --> A'             
     e(  3 -  3) =     -8.08056  eV     1   --> A'             
     e(  4 -  4) =     -4.23309  eV     1   --> A''            
     e(  5 -  5) =     -0.16047  eV     1   --> A''            
     e(  6 -  6) =      6.03384  eV     1   --> A'             
     e(  7 -  7) =      9.10361  eV     1   --> A'             
     e(  8 -  8) =      9.28109  eV     1   --> A'             

 **************************************************************************

 **************************************************************************

                    xk=(   0.47500,   0.33312,   0.00000  )

     Band symmetry, C_s (m)     point group:

     e(  1 -  1) =    -16.16837  eV     1   --> A'             
     e(  2 -  2) =    -14.86556  eV     1   --> A'             
     e(  3 -  3) =     -8.14076  eV     1   --> A'             
     e(  4 -  4) =     -4.21659  eV     1   --> A''            
     e(  5 -  5) =     -0.16360  eV     1   --> A''            
     e(  6 -  6) =      6.11503  eV     1   --> A'             
     e(  7 -  7) =      9.11899  eV     1   --> A'             
     e(  8 -  8) =      9.29869  eV     1   --> A'             

 **************************************************************************

 **************************************************************************

                    xk=(   0.47083,   0.34053,   0.00000  )

     Band symmetry, C_s (m)     point group:

     e(  1 -  1) =    -16.15449  eV     1   --> A'             
     e(  2 -  2) =    -14.85187  eV     1   --> A'             
     e(  3 -  3) =     -8.21089  eV     1   --> A'             
     e(  4 -  4) =     -4.19709  eV     1   --> A''            
     e(  5 -  5) =     -0.16747  eV     1   --> A''            
     e(  6 -  6) =      6.20989  eV     1   --> A'             
     e(  7 -  7) =      9.13713  eV     1   --> A'             
     e(  8 -  8) =      9.31946  eV     1   --> A'             

 **************************************************************************

 **************************************************************************

                    xk=(   0.46666,   0.34794,   0.00000  )

     Band symmetry, C_s (m)     point group:

     e(  1 -  1) =    -16.13848  eV     1   --> A'             
     e(  2 -  2) =    -14.83612  eV     1   --> A'             
     e(  3 -  3) =     -8.29050  eV     1   --> A'             
     e(  4 -  4) =     -4.17459  eV     1   --> A''            
     e(  5 -  5) =     -0.17216  eV     1   --> A''            
     e(  6 -  6) =      6.31789  eV     1   --> A'             
     e(  7 -  7) =      9.15803  eV     1   --> A'             
     e(  8 -  8) =      9.34339  eV     1   --> A'             

 **************************************************************************

 **************************************************************************

                    xk=(   0.46249,   0.35535,   0.00000  )

     Band symmetry, C_s (m)     point group:

     e(  1 -  1) =    -16.12033  eV     1   --> A'             
     e(  2 -  2) =    -14.81833  eV     1   --> A'             
     e(  3 -  3) =     -8.37908  eV     1   --> A'             
     e(  4 -  4) =     -4.14911  eV     1   --> A''            
     e(  5 -  5) =     -0.17778  eV     1   --> A''            
     e(  6 -  6) =      6.43849  eV     1   --> A'             
     e(  7 -  7) =      9.18166  eV     1   --> A'             
     e(  8 -  8) =      9.37046  eV     1   --> A'             

 **************************************************************************

 **************************************************************************

                    xk=(   0.45832,   0.36275,   0.00000  )

     Band symmetry, C_s (m)     point group:

     e(  1 -  1) =    -16.10005  eV     1   --> A'             
     e(  2 -  2) =    -14.79851  eV     1   --> A'             
     e(  3 -  3) =     -8.47611  eV     1   --> A'             
     e(  4 -  4) =     -4.12063  eV     1   --> A''            
     e(  5 -  5) =     -0.18444  eV     1   --> A''            
     e(  6 -  6) =      6.57108  eV     1   --> A'             
     e(  7 -  7) =      9.20801  eV     1   --> A'             
     e(  8 -  8) =      9.40064  eV     1   --> A'             

 **************************************************************************

 **************************************************************************

                    xk=(   0.45416,   0.37016,   0.00000  )

     Band symmetry, C_s (m)     point group:

     e(  1 -  1) =    -16.07764  eV     1   --> A'             
     e(  2 -  2) =    -14.77670  eV     1   --> A'             
     e(  3 -  3) =     -8.58103  eV     1   --> A'             
     e(  4 -  4) =     -4.08917  eV     1   --> A''            
     e(  5 -  5) =     -0.19226  eV     1   --> A''            
     e(  6 -  6) =      6.71504  eV     1   --> A'             
     e(  7 -  7) =      9.23705  eV     1   --> A'             
     e(  8 -  8) =      9.43393  eV     1   --> A'             

 **************************************************************************

 **************************************************************************

                    xk=(   0.44999,   0.37757,   0.00000  )

     Band symmetry, C_s (m)     point group:

     e(  1 -  1) =    -16.05310  eV     1   --> A'             
     e(  2 -  2) =    -14.75293  eV     1   --> A'             
     e(  3 -  3) =     -8.69328  eV     1   --> A'             
     e(  4 -  4) =     -4.05474  eV     1   --> A''            
     e(  5 -  5) =     -0.20138  eV     1   --> A''            
     e(  6 -  6) =      6.86969  eV     1   --> A'             
     e(  7 -  7) =      9.26874  eV     1   --> A'             
     e(  8 -  8) =      9.47030  eV     1   --> A'             

 **************************************************************************

 **************************************************************************

                    xk=(   0.44582,   0.38498,   0.00000  )

     Band symmetry, C_s (m)     point group:

     e(  1 -  1) =    -16.02643  eV     1   --> A'             
     e(  2 -  2) =    -14.72724  eV     1   --> A'             
     e(  3 -  3) =     -8.81228  eV     1   --> A'             
     e(  4 -  4) =     -4.01732  eV     1   --> A''            
     e(  5 -  5) =     -0.21196  eV     1   --> A''            
     e(  6 -  6) =      7.03438  eV     1   --> A'             
     e(  7 -  7) =      9.30305  eV     1   --> A'             
     e(  8 -  8) =      9.50972  eV     1   --> A'             

 **************************************************************************

 **************************************************************************

                    xk=(   0.44166,   0.39239,   0.00000  )

     Band symmetry, C_s (m)     point group:

     e(  1 -  1) =    -15.99763  eV     1   --> A'             
     e(  2 -  2) =    -14.69966  eV     1   --> A'             
     e(  3 -  3) =     -8.93746  eV     1   --> A'             
     e(  4 -  4) =     -3.97693  eV     1   --> A''            
     e(  5 -  5) =     -0.22414  eV     1   --> A''            
     e(  6 -  6) =      7.20839  eV     1   --> A'             
     e(  7 -  7) =      9.33995  eV     1   --> A'             
     e(  8 -  8) =      9.55217  eV     1   --> A'             

 **************************************************************************

 **************************************************************************

                    xk=(   0.43749,   0.39979,   0.00000  )

     Band symmetry, C_s (m)     point group:

     e(  1 -  1) =    -15.96670  eV     1   --> A'             
     e(  2 -  2) =    -14.67025  eV     1   --> A'             
     e(  3 -  3) =     -9.06826  eV     1   --> A'             
     e(  4 -  4) =     -3.93357  eV     1   --> A''            
     e(  5 -  5) =     -0.23811  eV     1   --> A''            
     e(  6 -  6) =      7.39103  eV     1   --> A'             
     e(  7 -  7) =      9.37938  eV     1   --> A'             
     e(  8 -  8) =      9.59762  eV     1   --> A'             

 **************************************************************************

 **************************************************************************

                    xk=(   0.43332,   0.40720,   0.00000  )

     Band symmetry, C_s (m)     point group:

     e(  1 -  1) =    -15.93365  eV     1   --> A'             
     e(  2 -  2) =    -14.63906  eV     1   --> A'             
     e(  3 -  3) =     -9.20410  eV     1   --> A'             
     e(  4 -  4) =     -3.88726  eV     1   --> A''            
     e(  5 -  5) =     -0.25405  eV     1   --> A''            
     e(  6 -  6) =      7.58155  eV     1   --> A'             
     e(  7 -  7) =      9.42129  eV     1   --> A'             
     e(  8 -  8) =      9.64606  eV     1   --> A'             

 **************************************************************************

 **************************************************************************

                    xk=(   0.42915,   0.41461,   0.00000  )

     Band symmetry, C_s (m)     point group:

     e(  1 -  1) =    -15.89846  eV     1   --> A'             
     e(  2 -  2) =    -14.60616  eV     1   --> A'             
     e(  3 -  3) =     -9.34443  eV     1   --> A'             
     e(  4 -  4) =     -3.83798  eV     1   --> A''            
     e(  5 -  5) =     -0.27215  eV     1   --> A''            
     e(  6 -  6) =      7.77922  eV     1   --> A'             
     e(  7 -  7) =      9.46562  eV     1   --> A'             
     e(  8 -  8) =      9.69744  eV     1   --> A'             

 **************************************************************************

 **************************************************************************

                    xk=(   0.42499,   0.42202,   0.00000  )

     Band symmetry, C_s (m)     point group:

     e(  1 -  1) =    -15.86116  eV     1   --> A'             
     e(  2 -  2) =    -14.57163  eV     1   --> A'             
     e(  3 -  3) =     -9.48872  eV     1   --> A'             
     e(  4 -  4) =     -3.78576  eV     1   --> A''            
     e(  5 -  5) =     -0.29262  eV     1   --> A''            
     e(  6 -  6) =      7.98325  eV     1   --> A'             
     e(  7 -  7) =      9.51230  eV     1   --> A'             
     e(  8 -  8) =      9.75176  eV     1   --> A'             

 **************************************************************************

 **************************************************************************

                    xk=(   0.42082,   0.42942,   0.00000  )

     Band symmetry, C_s (m)     point group:

     e(  1 -  1) =    -15.82173  eV     1   --> A'             
     e(  2 -  2) =    -14.53557  eV     1   --> A'             
     e(  3 -  3) =     -9.63641  eV     1   --> A'             
     e(  4 -  4) =     -3.73060  eV     1   --> A''            
     e(  5 -  5) =     -0.31565  eV     1   --> A''            
     e(  6 -  6) =      8.19284  eV     1   --> A'             
     e(  7 -  7) =      9.56126  eV     1   --> A'             
     e(  8 -  8) =      9.79309  eV     1   -->   ?

 **************************************************************************

 **************************************************************************

                    xk=(   0.41665,   0.43683,   0.00000  )

     Band symmetry, C_s (m)     point group:

     e(  1 -  1) =    -15.78018  eV     1   --> A'             
     e(  2 -  2) =    -14.49808  eV     1   --> A'             
     e(  3 -  3) =     -9.78699  eV     1   --> A'             
     e(  4 -  4) =     -3.67250  eV     1   --> A''            
     e(  5 -  5) =     -0.34147  eV     1   --> A''            
     e(  6 -  6) =      8.40711  eV     1   --> A'             
     e(  7 -  7) =      9.61241  eV     1   --> A'             
     e(  8 -  8) =      9.74202  eV     1   --> A''            

 **************************************************************************

 **************************************************************************

                    xk=(   0.41248,   0.44424,   0.00000  )

     Band symmetry, C_s (m)     point group:

     e(  1 -  1) =    -15.73652  eV     1   --> A'             
     e(  2 -  2) =    -14.45929  eV     1   --> A'             
     e(  3 -  3) =     -9.93992  eV     1   --> A'             
     e(  4 -  4) =     -3.61147  eV     1   --> A''            
     e(  5 -  5) =     -0.37029  eV     1   --> A''            
     e(  6 -  6) =      8.62512  eV     1   --> A'             
     e(  7 -  7) =      9.66568  eV     1   --> A'             
     e(  8 -  8) =      9.68554  eV     1   --> A''            

 **************************************************************************

 **************************************************************************

                    xk=(   0.40831,   0.45165,   0.00000  )

     Band symmetry, C_s (m)     point group:

     e(  1 -  1) =    -15.69074  eV     1   --> A'             
     e(  2 -  2) =    -14.41936  eV     1   --> A'             
     e(  3 -  3) =    -10.09468  eV     1   --> A'             
     e(  4 -  4) =     -3.54752  eV     1   --> A''            
     e(  5 -  5) =     -0.40232  eV     1   --> A''            
     e(  6 -  6) =      8.84577  eV     1   --> A'             
     e(  7 -  7) =      9.62442  eV     1   --> A''            
     e(  8 -  8) =      9.72099  eV     1   --> A'             

 **************************************************************************

 **************************************************************************

                    xk=(   0.40415,   0.45906,   0.00000  )

     Band symmetry, C_s (m)     point group:

     e(  1 -  1) =    -15.64284  eV     1   --> A'             
     e(  2 -  2) =    -14.37848  eV     1   --> A'             
     e(  3 -  3) =    -10.25073  eV     1   --> A'             
     e(  4 -  4) =     -3.48067  eV     1   --> A''            
     e(  5 -  5) =     -0.43777  eV     1   --> A''            
     e(  6 -  6) =      9.06774  eV     1   --> A'             
     e(  7 -  7) =      9.55964  eV     1   --> A''            
     e(  8 -  8) =      9.77833  eV     1   --> A'             

 **************************************************************************

 **************************************************************************

                    xk=(   0.39998,   0.46646,   0.00000  )

     Band symmetry, C_s (m)     point group:

     e(  1 -  1) =    -15.59284  eV     1   --> A'             
     e(  2 -  2) =    -14.33688  eV     1   --> A'             
     e(  3 -  3) =    -10.40751  eV     1   --> A'             
     e(  4 -  4) =     -3.41091  eV     1   --> A''            
     e(  5 -  5) =     -0.47685  eV     1   --> A''            
     e(  6 -  6) =      9.28928  eV     1   --> A'             
     e(  7 -  7) =      9.49224  eV     1   --> A''            
     e(  8 -  8) =      9.83779  eV     1   --> A'             

 **************************************************************************

 **************************************************************************

                    xk=(   0.39581,   0.47387,   0.00000  )

     Band symmetry, C_s (m)     point group:

     e(  1 -  1) =    -15.54073  eV     1   --> A'             
     e(  2 -  2) =    -14.29483  eV     1   --> A'             
     e(  3 -  3) =    -10.56445  eV     1   --> A'             
     e(  4 -  4) =     -3.33826  eV     1   --> A''            
     e(  5 -  5) =     -0.51976  eV     1   --> A''            
     e(  6 -  6) =      9.42335  eV     1   --> A''            
     e(  7 -  7) =      9.50773  eV     1   --> A'             
     e(  8 -  8) =      9.89987  eV     1   --> A'             

 **************************************************************************

 **************************************************************************

                    xk=(   0.39165,   0.48128,   0.00000  )

     Band symmetry, C_s (m)     point group:

     e(  1 -  1) =    -15.48653  eV     1   --> A'             
     e(  2 -  2) =    -14.25267  eV     1   --> A'             
     e(  3 -  3) =    -10.72091  eV     1   --> A'             
     e(  4 -  4) =     -3.26274  eV     1   --> A''            
     e(  5 -  5) =     -0.56669  eV     1   --> A''            
     e(  6 -  6) =      9.35410  eV     1   --> A''            
     e(  7 -  7) =      9.71798  eV     1   --> A'             
     e(  8 -  8) =      9.96658  eV     1   --> A'             

 **************************************************************************

 **************************************************************************

                    xk=(   0.38748,   0.48869,   0.00000  )

     Band symmetry, C_s (m)     point group:

     e(  1 -  1) =    -15.43022  eV     1   --> A'             
     e(  2 -  2) =    -14.21084  eV     1   --> A'             
     e(  3 -  3) =    -10.87621  eV     1   --> A'             
     e(  4 -  4) =     -3.18435  eV     1   --> A''            
     e(  5 -  5) =     -0.61780  eV     1   --> A''            
     e(  6 -  6) =      9.28555  eV     1   --> A''            
     e(  7 -  7) =      9.90554  eV     1   --> A'             
     e(  8 -  8) =     10.04743  eV     1   --> A'             

 **************************************************************************

 **************************************************************************

                    xk=(   0.38331,   0.49610,   0.00000  )

     Band symmetry, C_s (m)     point group:

     e(  1 -  1) =    -15.37183  eV     1   --> A'             
     e(  2 -  2) =    -14.16985  eV     1   --> A'             
     e(  3 -  3) =    -11.02958  eV     1   --> A'             
     e(  4 -  4) =     -3.10311  eV     1   --> A''            
     e(  5 -  5) =     -0.67324  eV     1   --> A''            
     e(  6 -  6) =      9.21872  eV     1   --> A''            
     e(  7 -  7) =     10.03373  eV     1   --> A'             
     e(  8 -  8) =     10.17089  eV     1   --> A'             

 **************************************************************************

 **************************************************************************

                    xk=(   0.37914,   0.50350,   0.00000  )

     Band symmetry, C_s (m)     point group:

     e(  1 -  1) =    -15.31136  eV     1   --> A'             
     e(  2 -  2) =    -14.13036  eV     1   --> A'             
     e(  3 -  3) =    -11.18014  eV     1   --> A'             
     e(  4 -  4) =     -3.01902  eV     1   --> A''            
     e(  5 -  5) =     -0.73315  eV     1   --> A''            
     e(  6 -  6) =      9.15453  eV     1   --> A''            
     e(  7 -  7) =     10.11344  eV     1   --> A'             
     e(  8 -  8) =     10.31534  eV     1   --> A'             

 **************************************************************************

 **************************************************************************

                    xk=(   0.37498,   0.51091,   0.00000  )

     Band symmetry, C_s (m)     point group:

     e(  1 -  1) =    -15.24882  eV     1   --> A'             
     e(  2 -  2) =    -14.09320  eV     1   --> A'             
     e(  3 -  3) =    -11.32684  eV     1   --> A'             
     e(  4 -  4) =     -2.93212  eV     1   --> A''            
     e(  5 -  5) =     -0.79763  eV     1   --> A''            
     e(  6 -  6) =      9.09380  eV     1   --> A''            
     e(  7 -  7) =     10.18038  eV     1   --> A'             
     e(  8 -  8) =     10.44052  eV     1   --> A'             

 **************************************************************************

 **************************************************************************

                    xk=(   0.37081,   0.51832,   0.00000  )

     Band symmetry, C_s (m)     point group:

     e(  1 -  1) =    -15.18422  eV     1   --> A'             
     e(  2 -  2) =    -14.05940  eV     1   --> A'             
     e(  3 -  3) =    -11.46845  eV     1   --> A'             
     e(  4 -  4) =     -2.84241  eV     1   --> A''            
     e(  5 -  5) =     -0.86675  eV     1   --> A''            
     e(  6 -  6) =      9.03723  eV     1   --> A''            
     e(  7 -  7) =     10.24308  eV     1   --> A'             
     e(  8 -  8) =     10.54519  eV     1   --> A'             

 **************************************************************************

 **************************************************************************

                    xk=(   0.36664,   0.52573,   0.00000  )

     Band symmetry, C_s (m)     point group:

     e(  1 -  1) =    -15.11758  eV     1   --> A'             
     e(  2 -  2) =    -14.03023  eV     1   --> A'             
     e(  3 -  3) =    -11.60351  eV     1   --> A'             
     e(  4 -  4) =     -2.74992  eV     1   --> A''            
     e(  5 -  5) =     -0.94056  eV     1   --> A''            
     e(  6 -  6) =      8.98544  eV     1   --> A''            
     e(  7 -  7) =     10.30304  eV     1   --> A'             
     e(  8 -  8) =     10.63707  eV     1   --> A'             

 **************************************************************************

 **************************************************************************

                    xk=(   0.36247,   0.53313,   0.00000  )

     Band symmetry, C_s (m)     point group:

     e(  1 -  1) =    -15.04892  eV     1   --> A'             
     e(  2 -  2) =    -14.00727  eV     1   --> A'             
     e(  3 -  3) =    -11.73027  eV     1   --> A'             
     e(  4 -  4) =     -2.65467  eV     1   --> A''            
     e(  5 -  5) =     -1.01907  eV     1   --> A''            
     e(  6 -  6) =      8.93891  eV     1   --> A''            
     e(  7 -  7) =     10.36032  eV     1   --> A'             
     e(  8 -  8) =     10.72112  eV     1   --> A'             

 **************************************************************************

 **************************************************************************

                    xk=(   0.35830,   0.54054,   0.00000  )

     Band symmetry, C_s (m)     point group:

     e(  1 -  1) =    -14.97828  eV     1   --> A'             
     e(  2 -  2) =    -13.99235  eV     1   --> A'             
     e(  3 -  3) =    -11.84670  eV     1   --> A'             
     e(  4 -  4) =     -2.55670  eV     1   --> A''            
     e(  5 -  5) =     -1.10224  eV     1   --> A''            
     e(  6 -  6) =      8.89804  eV     1   --> A''            
     e(  7 -  7) =     10.41453  eV     1   --> A'             
     e(  8 -  8) =     10.79936  eV     1   --> A'             

 **************************************************************************

 **************************************************************************

                    xk=(   0.35414,   0.54795,   0.00000  )

     Band symmetry, C_s (m)     point group:

     e(  1 -  1) =    -14.90572  eV     1   --> A'             
     e(  2 -  2) =    -13.98755  eV     1   --> A'             
     e(  3 -  3) =    -11.95057  eV     1   --> A'             
     e(  4 -  4) =     -2.45605  eV     1   --> A''            
     e(  5 -  5) =     -1.19001  eV     1   --> A''            
     e(  6 -  6) =      8.86313  eV     1   --> A''            
     e(  7 -  7) =     10.46511  eV     1   --> A'             
     e(  8 -  8) =     10.87214  eV     1   --> A'             

 **************************************************************************

 **************************************************************************

                    xk=(   0.34997,   0.55536,   0.00000  )

     Band symmetry, C_s (m)     point group:

     e(  1 -  1) =    -14.83131  eV     1   --> A'             
     e(  2 -  2) =    -13.99499  eV     1   --> A'             
     e(  3 -  3) =    -12.03952  eV     1   --> A'             
     e(  4 -  4) =     -2.35280  eV     1   --> A''            
     e(  5 -  5) =     -1.28226  eV     1   --> A''            
     e(  6 -  6) =      8.83435  eV     1   --> A''            
     e(  7 -  7) =     10.51139  eV     1   --> A'             
     e(  8 -  8) =     10.93883  eV     1   --> A'             

 **************************************************************************

 **************************************************************************

                    xk=(   0.34580,   0.56277,   0.00000  )

     Band symmetry, C_s (m)     point group:

     e(  1 -  1) =    -14.75521  eV     1   --> A'             
     e(  2 -  2) =    -14.01656  eV     1   --> A'             
     e(  3 -  3) =    -12.11142  eV     1   --> A'             
     e(  4 -  4) =     -2.24707  eV     1   --> A''            
     e(  5 -  5) =     -1.37876  eV     1   --> A''            
     e(  6 -  6) =      8.81181  eV     1   --> A''            
     e(  7 -  7) =     10.55268  eV     1   --> A'             
     e(  8 -  8) =     10.99794  eV     1   --> A'             

 **************************************************************************

 **************************************************************************

                    xk=(   0.34164,   0.57017,   0.00000  )

     Band symmetry, C_s (m)     point group:

     e(  1 -  1) =    -14.67775  eV     1   --> A'             
     e(  2 -  2) =    -14.05343  eV     1   --> A'             
     e(  3 -  3) =    -12.16468  eV     1   --> A'             
     e(  4 -  4) =     -2.13914  eV     1   --> A''            
     e(  5 -  5) =     -1.47913  eV     1   --> A''            
     e(  6 -  6) =      8.79551  eV     1   --> A''            
     e(  7 -  7) =     10.58828  eV     1   --> A'             
     e(  8 -  8) =     11.04707  eV     1   --> A'             

 **************************************************************************

 **************************************************************************

                    xk=(   0.33747,   0.57758,   0.00000  )

     Band symmetry, C_s (m)     point group:

     e(  1 -  1) =    -14.59962  eV     1   --> A'             
     e(  2 -  2) =    -14.10552  eV     1   --> A'             
     e(  3 -  3) =    -12.19859  eV     1   --> A'             
     e(  4 -  4) =     -2.02981  eV     1   --> A''            
     e(  5 -  5) =     -1.58244  eV     1   --> A''            
     e(  6 -  6) =      8.78536  eV     1   --> A''            
     e(  7 -  7) =     10.61748  eV     1   --> A'             
     e(  8 -  8) =     11.08234  eV     1   --> A'             

 **************************************************************************

 **************************************************************************

                    xk=(   0.33330,   0.58499,   0.00000  )

     Band symmetry, C_s (m)     point group:

     e(  1 -  1) =    -14.52293  eV     1   --> A'             
     e(  2 -  2) =    -14.17032  eV     1   --> A'             
     e(  3 -  3) =    -12.21345  eV     1   --> A'             
     e(  4 -  4) =     -1.92284  eV     1   --> A''            
     e(  5 -  5) =     -1.68477  eV     1   --> A''            
     e(  6 -  6) =      8.78116  eV     1   --> A''            
     e(  7 -  7) =     10.63963  eV     1   --> A'             
     e(  8 -  8) =     11.09749  eV     1   --> A'             

 **************************************************************************

 **************************************************************************

                    xk=(   0.32497,   0.57037,   0.00000  )

     Band symmetry, C_s (m)     point group:

     e(  1 -  1) =    -14.60800  eV     1   --> A'             
     e(  2 -  2) =    -14.10616  eV     1   --> A'             
     e(  3 -  3) =    -12.18266  eV     1   --> A'             
     e(  4 -  4) =     -2.06801  eV     1   --> A''            
     e(  5 -  5) =     -1.54162  eV     1   --> A''            
     e(  6 -  6) =      8.79143  eV     1   --> A''            
     e(  7 -  7) =     10.61597  eV     1   --> A'             
     e(  8 -  8) =     10.98193  eV     1   --> A'             

 **************************************************************************

 **************************************************************************

                    xk=(   0.31663,   0.55574,   0.00000  )

     Band symmetry, C_s (m)     point group:

     e(  1 -  1) =    -14.80121  eV     1   --> A'             
     e(  2 -  2) =    -13.96395  eV     1   --> A'             
     e(  3 -  3) =    -12.10185  eV     1   --> A'             
     e(  4 -  4) =     -2.30089  eV     1   --> A''            
     e(  5 -  5) =     -1.31299  eV     1   --> A''            
     e(  6 -  6) =      8.81820  eV     1   --> A''            
     e(  7 -  7) =     10.46108  eV     1   --> A'             
     e(  8 -  8) =     10.84321  eV     1   --> A'             

 **************************************************************************

 **************************************************************************

                    xk=(   0.30830,   0.54112,   0.00000  )

     Band symmetry, C_s (m)     point group:

     e(  1 -  1) =    -15.03957  eV     1   --> A'             
     e(  2 -  2) =    -13.79362  eV     1   --> A'             
     e(  3 -  3) =    -11.98375  eV     1   --> A'             
     e(  4 -  4) =     -2.55328  eV     1   --> A''            
     e(  5 -  5) =     -1.06538  eV     1   --> A''            
     e(  6 -  6) =      8.85468  eV     1   --> A''            
     e(  7 -  7) =     10.15582  eV     1   --> A'             
     e(  8 -  8) =     10.75292  eV     1   --> A'             

 **************************************************************************

 **************************************************************************

                    xk=(   0.29997,   0.52649,   0.00000  )

     Band symmetry, C_s (m)     point group:

     e(  1 -  1) =    -15.29964  eV     1   --> A'             
     e(  2 -  2) =    -13.60866  eV     1   --> A'             
     e(  3 -  3) =    -11.83805  eV     1   --> A'             
     e(  4 -  4) =     -2.81680  eV     1   --> A''            
     e(  5 -  5) =     -0.80547  eV     1   --> A''            
     e(  6 -  6) =      8.89018  eV     1   --> A''            
     e(  7 -  7) =      9.78044  eV     1   --> A'             
     e(  8 -  8) =     10.66888  eV     1   --> A'             

 **************************************************************************

 **************************************************************************

                    xk=(   0.29164,   0.51187,   0.00000  )

     Band symmetry, C_s (m)     point group:

     e(  1 -  1) =    -15.57068  eV     1   --> A'             
     e(  2 -  2) =    -13.41295  eV     1   --> A'             
     e(  3 -  3) =    -11.67145  eV     1   --> A'             
     e(  4 -  4) =     -3.08812  eV     1   --> A''            
     e(  5 -  5) =     -0.53496  eV     1   --> A''            
     e(  6 -  6) =      8.90808  eV     1   --> A''            
     e(  7 -  7) =      9.37933  eV     1   --> A'             
     e(  8 -  8) =     10.56598  eV     1   --> A'             

 **************************************************************************

 **************************************************************************

                    xk=(   0.28330,   0.49724,   0.00000  )

     Band symmetry, C_s (m)     point group:

     e(  1 -  1) =    -15.84661  eV     1   --> A'             
     e(  2 -  2) =    -13.20799  eV     1   --> A'             
     e(  3 -  3) =    -11.48846  eV     1   --> A'             
     e(  4 -  4) =     -3.36489  eV     1   --> A''            
     e(  5 -  5) =     -0.25458  eV     1   --> A''            
     e(  6 -  6) =      8.88418  eV     1   --> A''            
     e(  7 -  7) =      8.97011  eV     1   --> A'             
     e(  8 -  8) =     10.39812  eV     1   --> A'             

 **************************************************************************

 **************************************************************************

                    xk=(   0.27497,   0.48262,   0.00000  )

     Band symmetry, C_s (m)     point group:

     e(  1 -  1) =    -16.12363  eV     1   --> A'             
     e(  2 -  2) =    -12.99452  eV     1   --> A'             
     e(  3 -  3) =    -11.29218  eV     1   --> A'             
     e(  4 -  4) =     -3.64519  eV     1   --> A''            
     e(  5 -  5) =      0.03514  eV     1   --> A''            
     e(  6 -  6) =      8.56106  eV     1   --> A'             
     e(  7 -  7) =      8.79119  eV     1   --> A''            
     e(  8 -  8) =     10.01771  eV     1   --> A'             

 **************************************************************************

 **************************************************************************

                    xk=(   0.26664,   0.46799,   0.00000  )

     Band symmetry, C_s (m)     point group:

     e(  1 -  1) =    -16.39921  eV     1   --> A'             
     e(  2 -  2) =    -12.77295  eV     1   --> A'             
     e(  3 -  3) =    -11.08481  eV     1   --> A'             
     e(  4 -  4) =     -3.92730  eV     1   --> A''            
     e(  5 -  5) =      0.33379  eV     1   --> A''            
     e(  6 -  6) =      8.15667  eV     1   --> A'             
     e(  7 -  7) =      8.61498  eV     1   --> A''            
     e(  8 -  8) =      9.59604  eV     1   --> A'             

 **************************************************************************

 **************************************************************************

                    xk=(   0.25831,   0.45337,   0.00000  )

     Band symmetry, C_s (m)     point group:

     e(  1 -  1) =    -16.67159  eV     1   --> A'             
     e(  2 -  2) =    -12.54358  eV     1   --> A'             
     e(  3 -  3) =    -10.86800  eV     1   --> A'             
     e(  4 -  4) =     -4.20969  eV     1   --> A''            
     e(  5 -  5) =      0.64095  eV     1   --> A''            
     e(  6 -  6) =      7.75958  eV     1   --> A'             
     e(  7 -  7) =      8.36707  eV     1   --> A''            
     e(  8 -  8) =      9.18102  eV     1   --> A'             

 **************************************************************************

 **************************************************************************

                    xk=(   0.24998,   0.43874,   0.00000  )

     Band symmetry, C_s (m)     point group:

     e(  1 -  1) =    -16.93950  eV     1   --> A'             
     e(  2 -  2) =    -12.30668  eV     1   --> A'             
     e(  3 -  3) =    -10.64303  eV     1   --> A'             
     e(  4 -  4) =     -4.49100  eV     1   --> A''            
     e(  5 -  5) =      0.95621  eV     1   --> A''            
     e(  6 -  6) =      7.37145  eV     1   --> A'             
     e(  7 -  7) =      8.07276  eV     1   --> A''            
     e(  8 -  8) =      8.77686  eV     1   --> A'             

 **************************************************************************

 **************************************************************************

                    xk=(   0.24164,   0.42412,   0.00000  )

     Band symmetry, C_s (m)     point group:

     e(  1 -  1) =    -17.20199  eV     1   --> A'             
     e(  2 -  2) =    -12.06246  eV     1   --> A'             
     e(  3 -  3) =    -10.41097  eV     1   --> A'             
     e(  4 -  4) =     -4.77000  eV     1   --> A''            
     e(  5 -  5) =      1.27912  eV     1   --> A''            
     e(  6 -  6) =      6.99340  eV     1   --> A'             
     e(  7 -  7) =      7.75423  eV     1   --> A''            
     e(  8 -  8) =      8.38472  eV     1   --> A'             

 **************************************************************************

 **************************************************************************

                    xk=(   0.23331,   0.40949,   0.00000  )

     Band symmetry, C_s (m)     point group:

     e(  1 -  1) =    -17.45834  eV     1   --> A'             
     e(  2 -  2) =    -11.81114  eV     1   --> A'             
     e(  3 -  3) =    -10.17274  eV     1   --> A'             
     e(  4 -  4) =     -5.04561  eV     1   --> A''            
     e(  5 -  5) =      1.60919  eV     1   --> A''            
     e(  6 -  6) =      6.62618  eV     1   --> A'             
     e(  7 -  7) =      7.42584  eV     1   --> A''            
     e(  8 -  8) =      8.00508  eV     1   --> A'             

 **************************************************************************

 **************************************************************************

                    xk=(   0.22498,   0.39487,   0.00000  )

     Band symmetry, C_s (m)     point group:

     e(  1 -  1) =    -17.70796  eV     1   --> A'             
     e(  2 -  2) =    -11.55297  eV     1   --> A'             
     e(  3 -  3) =     -9.92918  eV     1   --> A'             
     e(  4 -  4) =     -5.31686  eV     1   --> A''            
     e(  5 -  5) =      1.94589  eV     1   --> A''            
     e(  6 -  6) =      6.27032  eV     1   --> A'             
     e(  7 -  7) =      7.09610  eV     1   --> A''            
     e(  8 -  8) =      7.63822  eV     1   --> A'             

 **************************************************************************

 **************************************************************************

                    xk=(   0.21665,   0.38024,   0.00000  )

     Band symmetry, C_s (m)     point group:

     e(  1 -  1) =    -17.95042  eV     1   --> A'             
     e(  2 -  2) =    -11.28819  eV     1   --> A'             
     e(  3 -  3) =     -9.68111  eV     1   --> A'             
     e(  4 -  4) =     -5.58288  eV     1   --> A''            
     e(  5 -  5) =      2.28862  eV     1   --> A''            
     e(  6 -  6) =      5.92623  eV     1   --> A'             
     e(  7 -  7) =      6.77004  eV     1   --> A''            
     e(  8 -  8) =      7.28432  eV     1   --> A'             

 **************************************************************************

 **************************************************************************

                    xk=(   0.20831,   0.36562,   0.00000  )

     Band symmetry, C_s (m)     point group:

     e(  1 -  1) =    -18.18533  eV     1   --> A'             
     e(  2 -  2) =    -11.01708  eV     1   --> A'             
     e(  3 -  3) =     -9.42929  eV     1   --> A'             
     e(  4 -  4) =     -5.84292  eV     1   --> A''            
     e(  5 -  5) =      2.63676  eV     1   --> A''            
     e(  6 -  6) =      5.59419  eV     1   --> A'             
     e(  7 -  7) =      6.45070  eV     1   --> A''            
     e(  8 -  8) =      6.94347  eV     1   --> A'             

 **************************************************************************

 **************************************************************************

                    xk=(   0.19998,   0.35099,   0.00000  )

     Band symmetry, C_s (m)     point group:

     e(  1 -  1) =    -18.41239  eV     1   --> A'             
     e(  2 -  2) =    -10.73997  eV     1   --> A'             
     e(  3 -  3) =     -9.17452  eV     1   --> A'             
     e(  4 -  4) =     -6.09629  eV     1   --> A''            
     e(  5 -  5) =      2.98957  eV     1   --> A''            
     e(  6 -  6) =      5.27445  eV     1   --> A'             
     e(  7 -  7) =      6.14003  eV     1   --> A''            
     e(  8 -  8) =      6.61577  eV     1   --> A'             

 **************************************************************************

 **************************************************************************

                    xk=(   0.19165,   0.33637,   0.00000  )

     Band symmetry, C_s (m)     point group:

     e(  1 -  1) =    -18.63135  eV     1   --> A'             
     e(  2 -  2) =    -10.45722  eV     1   --> A'             
     e(  3 -  3) =     -8.91760  eV     1   --> A'             
     e(  4 -  4) =     -6.34240  eV     1   --> A''            
     e(  5 -  5) =      3.34625  eV     1   --> A''            
     e(  6 -  6) =      4.96716  eV     1   --> A'             
     e(  7 -  7) =      5.83931  eV     1   --> A''            
     e(  8 -  8) =      6.30128  eV     1   --> A'             

 **************************************************************************

 **************************************************************************

                    xk=(   0.18332,   0.32174,   0.00000  )

     Band symmetry, C_s (m)     point group:

     e(  1 -  1) =    -18.84198  eV     1   --> A'             
     e(  2 -  2) =    -10.16923  eV     1   --> A'             
     e(  3 -  3) =     -8.65937  eV     1   --> A'             
     e(  4 -  4) =     -6.58072  eV     1   --> A''            
     e(  5 -  5) =      3.70590  eV     1   --> A''            
     e(  6 -  6) =      4.67247  eV     1   --> A'             
     e(  7 -  7) =      5.54944  eV     1   --> A''            
     e(  8 -  8) =      6.00003  eV     1   --> A'             

 **************************************************************************

 **************************************************************************

                    xk=(   0.17498,   0.30712,   0.00000  )

     Band symmetry, C_s (m)     point group:

     e(  1 -  1) =    -19.04409  eV     1   --> A'             
     e(  2 -  2) =     -9.87646  eV     1   --> A'             
     e(  3 -  3) =     -8.40069  eV     1   --> A'             
     e(  4 -  4) =     -6.81078  eV     1   --> A''            
     e(  5 -  5) =      4.06742  eV     1   --> A''            
     e(  6 -  6) =      4.39050  eV     1   --> A'             
     e(  7 -  7) =      5.27115  eV     1   --> A''            
     e(  8 -  8) =      5.71207  eV     1   --> A'             

 **************************************************************************

 **************************************************************************

                    xk=(   0.16665,   0.29249,   0.00000  )

     Band symmetry, C_s (m)     point group:

     e(  1 -  1) =    -19.23754  eV     1   --> A'             
     e(  2 -  2) =     -9.57946  eV     1   --> A'             
     e(  3 -  3) =     -8.14247  eV     1   --> A'             
     e(  4 -  4) =     -7.03215  eV     1   --> A''            
     e(  5 -  5) =      4.12133  eV     1   --> A'             
     e(  6 -  6) =      4.42908  eV     1   --> A''            
     e(  7 -  7) =      5.00553  eV     1   --> A''            
     e(  8 -  8) =      5.43743  eV     1   --> A'             

 **************************************************************************

 **************************************************************************

                    xk=(   0.15832,   0.27787,   0.00000  )

     Band symmetry, C_s (m)     point group:

     e(  1 -  1) =    -19.42218  eV     1   --> A'             
     e(  2 -  2) =     -9.27884  eV     1   --> A'             
     e(  3 -  3) =     -7.88569  eV     1   --> A'             
     e(  4 -  4) =     -7.24446  eV     1   --> A''            
     e(  5 -  5) =      3.86504  eV     1   --> A'             
     e(  6 -  6) =      4.72739  eV     1   --> A''            
     e(  7 -  7) =      4.81523  eV     1   --> A''            
     e(  8 -  8) =      5.17611  eV     1   --> A'             

 **************************************************************************

 **************************************************************************

                    xk=(   0.14999,   0.26325,   0.00000  )

     Band symmetry, C_s (m)     point group:

     e(  1 -  1) =    -19.59788  eV     1   --> A'             
     e(  2 -  2) =     -8.97531  eV     1   --> A'             
     e(  3 -  3) =     -7.63134  eV     1   --> A'             
     e(  4 -  4) =     -7.44740  eV     1   --> A''            
     e(  5 -  5) =      3.62168  eV     1   --> A'             
     e(  6 -  6) =      4.50378  eV     1   --> A''            
     e(  7 -  7) =      4.92816  eV     1   --> A'             
     e(  8 -  8) =      5.15771  eV     1   --> A''            

 **************************************************************************

 **************************************************************************

                    xk=(   0.14165,   0.24862,   0.00000  )

     Band symmetry, C_s (m)     point group:

     e(  1 -  1) =    -19.76455  eV     1   --> A'             
     e(  2 -  2) =     -8.66970  eV     1   --> A'             
     e(  3 -  3) =     -7.64066  eV     1   --> A''            
     e(  4 -  4) =     -7.38048  eV     1   --> A'             
     e(  5 -  5) =      3.39132  eV     1   --> A'             
     e(  6 -  6) =      4.27497  eV     1   --> A''            
     e(  7 -  7) =      4.69356  eV     1   --> A'             
     e(  8 -  8) =      5.51492  eV     1   --> A''            

 **************************************************************************

 **************************************************************************

                    xk=(   0.13332,   0.23400,   0.00000  )

     Band symmetry, C_s (m)     point group:

     e(  1 -  1) =    -19.92208  eV     1   --> A'             
     e(  2 -  2) =     -8.36297  eV     1   --> A'             
     e(  3 -  3) =     -7.82399  eV     1   --> A''            
     e(  4 -  4) =     -7.13424  eV     1   --> A'             
     e(  5 -  5) =      3.17399  eV     1   --> A'             
     e(  6 -  6) =      4.05819  eV     1   --> A''            
     e(  7 -  7) =      4.47235  eV     1   --> A'             
     e(  8 -  8) =      5.86738  eV     1   --> A''            

 **************************************************************************

 **************************************************************************

                    xk=(   0.12499,   0.21937,   0.00000  )

     Band symmetry, C_s (m)     point group:

     e(  1 -  1) =    -20.07041  eV     1   --> A'             
     e(  2 -  2) =     -8.05622  eV     1   --> A'             
     e(  3 -  3) =     -7.99715  eV     1   --> A''            
     e(  4 -  4) =     -6.89378  eV     1   --> A'             
     e(  5 -  5) =      2.96973  eV     1   --> A'             
     e(  6 -  6) =      3.85405  eV     1   --> A''            
     e(  7 -  7) =      4.26453  eV     1   --> A'             
     e(  8 -  8) =      6.12897  eV     1   --> A''            

 **************************************************************************

 **************************************************************************

                    xk=(   0.11665,   0.20475,   0.00000  )

     Band symmetry, C_s (m)     point group:

     e(  1 -  1) =    -20.20944  eV     1   --> A'             
     e(  2 -  2) =     -8.15994  eV     1   --> A''            
     e(  3 -  3) =     -7.75075  eV     1   --> A'             
     e(  4 -  4) =     -6.66028  eV     1   --> A'             
     e(  5 -  5) =      2.77857  eV     1   --> A'             
     e(  6 -  6) =      3.66275  eV     1   --> A''            
     e(  7 -  7) =      4.07011  eV     1   --> A'             
     e(  8 -  8) =      5.95297  eV     1   --> A''            

 **************************************************************************

 **************************************************************************

                    xk=(   0.10832,   0.19012,   0.00000  )

     Band symmetry, C_s (m)     point group:

     e(  1 -  1) =    -20.33913  eV     1   --> A'             
     e(  2 -  2) =     -8.31218  eV     1   --> A''            
     e(  3 -  3) =     -7.44806  eV     1   --> A'             
     e(  4 -  4) =     -6.43498  eV     1   --> A'             
     e(  5 -  5) =      2.60054  eV     1   --> A'             
     e(  6 -  6) =      3.48440  eV     1   --> A''            
     e(  7 -  7) =      3.88909  eV     1   --> A'             
     e(  8 -  8) =      5.77766  eV     1   --> A''            

 **************************************************************************

 **************************************************************************

                    xk=(   0.09999,   0.17550,   0.00000  )

     Band symmetry, C_s (m)     point group:

     e(  1 -  1) =    -20.45940  eV     1   --> A'             
     e(  2 -  2) =     -8.45370  eV     1   --> A''            
     e(  3 -  3) =     -7.14992  eV     1   --> A'             
     e(  4 -  4) =     -6.21913  eV     1   --> A'             
     e(  5 -  5) =      2.43565  eV     1   --> A'             
     e(  6 -  6) =      3.31906  eV     1   --> A''            
     e(  7 -  7) =      3.72147  eV     1   --> A'             
     e(  8 -  8) =      5.61447  eV     1   --> A''            

 **************************************************************************

 **************************************************************************

                    xk=(   0.09166,   0.16087,   0.00000  )

     Band symmetry, C_s (m)     point group:

     e(  1 -  1) =    -20.57022  eV     1   --> A'             
     e(  2 -  2) =     -8.58437  eV     1   --> A''            
     e(  3 -  3) =     -6.85836  eV     1   --> A'             
     e(  4 -  4) =     -6.01397  eV     1   --> A'             
     e(  5 -  5) =      2.28393  eV     1   --> A'             
     e(  6 -  6) =      3.16681  eV     1   --> A''            
     e(  7 -  7) =      3.56727  eV     1   --> A'             
     e(  8 -  8) =      5.46396  eV     1   --> A''            

 **************************************************************************

 **************************************************************************

                    xk=(   0.08332,   0.14625,   0.00000  )

     Band symmetry, C_s (m)     point group:

     e(  1 -  1) =    -20.67154  eV     1   --> A'             
     e(  2 -  2) =     -8.70405  eV     1   --> A''            
     e(  3 -  3) =     -6.57576  eV     1   --> A'             
     e(  4 -  4) =     -5.82071  eV     1   --> A'             
     e(  5 -  5) =      2.14538  eV     1   --> A'             
     e(  6 -  6) =      3.02769  eV     1   --> A''            
     e(  7 -  7) =      3.42649  eV     1   --> A'             
     e(  8 -  8) =      5.32630  eV     1   --> A''            

 **************************************************************************

 **************************************************************************

                    xk=(   0.07499,   0.13162,   0.00000  )

     Band symmetry, C_s (m)     point group:

     e(  1 -  1) =    -20.76332  eV     1   --> A'             
     e(  2 -  2) =     -8.81264  eV     1   --> A''            
     e(  3 -  3) =     -6.30484  eV     1   --> A'             
     e(  4 -  4) =     -5.64050  eV     1   --> A'             
     e(  5 -  5) =      2.02002  eV     1   --> A'             
     e(  6 -  6) =      2.90173  eV     1   --> A''            
     e(  7 -  7) =      3.29912  eV     1   --> A'             
     e(  8 -  8) =      5.20158  eV     1   --> A''            

 **************************************************************************

 **************************************************************************

                    xk=(   0.06666,   0.11700,   0.00000  )

     Band symmetry, C_s (m)     point group:

     e(  1 -  1) =    -20.84552  eV     1   --> A'             
     e(  2 -  2) =     -8.91004  eV     1   --> A''            
     e(  3 -  3) =     -6.04875  eV     1   --> A'             
     e(  4 -  4) =     -5.47439  eV     1   --> A'             
     e(  5 -  5) =      1.90785  eV     1   --> A'             
     e(  6 -  6) =      2.78896  eV     1   --> A''            
     e(  7 -  7) =      3.18516  eV     1   --> A'             
     e(  8 -  8) =      5.08988  eV     1   --> A''            

 **************************************************************************

 **************************************************************************

                    xk=(   0.05833,   0.10237,   0.00000  )

     Band symmetry, C_s (m)     point group:

     e(  1 -  1) =    -20.91811  eV     1   --> A'             
     e(  2 -  2) =     -8.99617  eV     1   --> A''            
     e(  3 -  3) =     -5.81109  eV     1   --> A'             
     e(  4 -  4) =     -5.32328  eV     1   --> A'             
     e(  5 -  5) =      1.80888  eV     1   --> A'             
     e(  6 -  6) =      2.68941  eV     1   --> A''            
     e(  7 -  7) =      3.08462  eV     1   --> A'             
     e(  8 -  8) =      4.99123  eV     1   --> A''            

 **************************************************************************

 **************************************************************************

                    xk=(   0.04999,   0.08775,   0.00000  )

     Band symmetry, C_s (m)     point group:

     e(  1 -  1) =    -20.98108  eV     1   --> A'             
     e(  2 -  2) =     -9.07095  eV     1   --> A''            
     e(  3 -  3) =     -5.59587  eV     1   --> A'             
     e(  4 -  4) =     -5.18784  eV     1   --> A'             
     e(  5 -  5) =      1.72311  eV     1   --> A'             
     e(  6 -  6) =      2.60310  eV     1   --> A''            
     e(  7 -  7) =      2.99750  eV     1   --> A'             
     e(  8 -  8) =      4.90568  eV     1   --> A''            

 **************************************************************************

 **************************************************************************

                    xk=(   0.04166,   0.07312,   0.00000  )

     Band symmetry, C_s (m)     point group:

     e(  1 -  1) =    -21.03439  eV     1   --> A'             
     e(  2 -  2) =     -9.13433  eV     1   --> A''            
     e(  3 -  3) =     -5.40744  eV     1   --> A'             
     e(  4 -  4) =     -5.06853  eV     1   --> A'             
     e(  5 -  5) =      1.65055  eV     1   --> A'             
     e(  6 -  6) =      2.53004  eV     1   --> A''            
     e(  7 -  7) =      2.92378  eV     1   --> A'             
     e(  8 -  8) =      4.83324  eV     1   --> A''            

 **************************************************************************

 **************************************************************************

                    xk=(   0.03333,   0.05850,   0.00000  )

     Band symmetry, C_s (m)     point group:

     e(  1 -  1) =    -21.07804  eV     1   --> A'             
     e(  2 -  2) =     -9.18625  eV     1   --> A''            
     e(  3 -  3) =     -5.25016  eV     1   --> A'             
     e(  4 -  4) =     -4.96577  eV     1   --> A'             
     e(  5 -  5) =      1.59118  eV     1   --> A'             
     e(  6 -  6) =      2.47024  eV     1   --> A''            
     e(  7 -  7) =      2.86347  eV     1   --> A'             
     e(  8 -  8) =      4.77395  eV     1   --> A''            

 **************************************************************************

 **************************************************************************

                    xk=(   0.02500,   0.04387,   0.00000  )

     Band symmetry, C_s (m)     point group:

     e(  1 -  1) =    -21.11200  eV     1   --> A'             
     e(  2 -  2) =     -9.22667  eV     1   --> A''            
     e(  3 -  3) =     -5.12758  eV     1   --> A'             
     e(  4 -  4) =     -4.88051  eV     1   --> A'             
     e(  5 -  5) =      1.54501  eV     1   --> A'             
     e(  6 -  6) =      2.42373  eV     1   --> A''            
     e(  7 -  7) =      2.81657  eV     1   --> A'             
     e(  8 -  8) =      4.72782  eV     1   --> A''            

 **************************************************************************

 **************************************************************************

                    xk=(   0.01666,   0.02925,   0.00000  )

     Band symmetry, C_s (m)     point group:

     e(  1 -  1) =    -21.13626  eV     1   --> A'             
     e(  2 -  2) =     -9.25557  eV     1   --> A''            
     e(  3 -  3) =     -5.04131  eV     1   --> A'             
     e(  4 -  4) =     -4.81514  eV     1   --> A'             
     e(  5 -  5) =      1.51204  eV     1   --> A'             
     e(  6 -  6) =      2.39050  eV     1   --> A''            
     e(  7 -  7) =      2.78307  eV     1   --> A'             
     e(  8 -  8) =      4.69486  eV     1   --> A''            

 **************************************************************************

 **************************************************************************

                    xk=(   0.00833,   0.01462,   0.00000  )

     Band symmetry, C_s (m)     point group:

     e(  1 -  1) =    -21.15082  eV     1   --> A'             
     e(  2 -  2) =     -9.27291  eV     1   --> A''            
     e(  3 -  3) =     -4.99065  eV     1   --> A'             
     e(  4 -  4) =     -4.77346  eV     1   --> A'             
     e(  5 -  5) =      1.49225  eV     1   --> A'             
     e(  6 -  6) =      2.37056  eV     1   --> A''            
     e(  7 -  7) =      2.76297  eV     1   --> A'             
     e(  8 -  8) =      4.67508  eV     1   --> A''            

 **************************************************************************

 **************************************************************************

                    xk=(   0.00000,   0.00000,   0.00000  )

     point group C_2h (2/m) 
     there are  4 classes
     the character table:

       E     C2    i     s_h  
A_g    1.00  1.00  1.00  1.00
B_g    1.00 -1.00  1.00 -1.00
A_u    1.00  1.00 -1.00 -1.00
B_u    1.00 -1.00 -1.00  1.00

     the symmetry operations in each class and the name of the first element:

     E        1
                                                                 
     C2       2
                                                                 
     i        3
                                                                 
     s_h      4
                                                                 

     Band symmetry, C_2h (2/m)  point group:

     e(  1 -  1) =    -21.15568  eV     1   --> A_g            
     e(  2 -  2) =     -9.27870  eV     1   --> A_u            
     e(  3 -  3) =     -4.97402  eV     1   --> A_g            
     e(  4 -  4) =     -4.75907  eV     1   --> A_g            
     e(  5 -  5) =      1.48566  eV     1   --> A_g            
     e(  6 -  6) =      2.36391  eV     1   --> A_u            
     e(  7 -  7) =      2.75627  eV     1   --> A_g            
     e(  8 -  8) =      4.66849  eV     1   --> A_u            

 **************************************************************************

     BANDS        :     38.49s CPU     56.66s WALL


   This run was terminated on:  21: 3:59  11Apr2026            

=------------------------------------------------------------------------------=
   JOB DONE.
=------------------------------------------------------------------------------=
