
     Program BANDS v.7.5 starts on 12Apr2026 at 12:44: 0 

     This program is part of the open-source Quantum ESPRESSO suite
     for quantum simulation of materials; please cite
         "P. Giannozzi et al., J. Phys.:Condens. Matter 21 395502 (2009);
         "P. Giannozzi et al., J. Phys.:Condens. Matter 29 465901 (2017);
         "P. Giannozzi et al., J. Chem. Phys. 152 154105 (2020);
          URL http://www.quantum-espresso.org", 
     in publications or presentations arising from this work. More details at
     http://www.quantum-espresso.org/quote

     Parallel version (MPI), running on     1 processors

     MPI processes distributed on     1 nodes
     2146 MiB available memory on the printing compute node when the environment starts


     Reading xml data from directory:

     ./tmp/graphene_0p04_relax.save/
     file C.pbe-n-kjpaw_psl.1.0.0.UPF: wavefunction(s)  2S 2P renormalized

     IMPORTANT: XC functional enforced from input :
     Exchange-correlation= PBE
                           (   1   4   3   4   0   0   0)
     Any further DFT definition will be discarded
     Please, verify this is what you really want


     G-vector sticks info
     --------------------
     sticks:   dense  smooth     PW     G-vecs:    dense   smooth      PW
     Sum         991     497    153               150871    53329    8889

     Using Slab Decomposition


     negative rho (up, down):  3.048E-05 0.000E+00
     Reading collected, re-writing distributed wavefunctions
     high-symmetry point:  0.0000 0.0000 0.0000   x coordinate   0.0000
     high-symmetry point:  0.5000 0.2887 0.0000   x coordinate   0.5774
     high-symmetry point:  0.3333 0.5927 0.0000   x coordinate   0.9241
     high-symmetry point:  0.0000 0.0000 0.0000   x coordinate   1.6041

     Plottable bands (eV) written to file graphene_strain_0p04.bands.dat.gnu
     Bands written to file graphene_strain_0p04.bands.dat

 **************************************************************************

                    xk=(   0.00000,   0.00000,   0.00000  )

     point group C_2h (2/m) 
     there are  4 classes
     the character table:

       E     C2    i     s_h  
A_g    1.00  1.00  1.00  1.00
B_g    1.00 -1.00  1.00 -1.00
A_u    1.00  1.00 -1.00 -1.00
B_u    1.00 -1.00 -1.00  1.00

     the symmetry operations in each class and the name of the first element:

     E        1
                                                                 
     C2       2
                                                                 
     i        3
                                                                 
     s_h      4
                                                                 

     Band symmetry, C_2h (2/m)  point group:

     e(  1 -  1) =    -21.03785  eV     1   --> A_g            
     e(  2 -  2) =     -9.19841  eV     1   --> A_u            
     e(  3 -  3) =     -5.16692  eV     1   --> A_g            
     e(  4 -  4) =     -4.79636  eV     1   --> A_g            
     e(  5 -  5) =      1.46202  eV     1   --> A_g            
     e(  6 -  6) =      2.33512  eV     1   --> A_u            
     e(  7 -  7) =      2.72994  eV     1   --> A_g            
     e(  8 -  8) =      4.64198  eV     1   --> A_u            

 **************************************************************************

 **************************************************************************

                    xk=(   0.01250,   0.00722,   0.00000  )

     point group C_s (m)    
     there are  2 classes
     the character table:

       E     s    
A'     1.00  1.00
A''    1.00 -1.00

     the symmetry operations in each class and the name of the first element:

     E        1
                                                                 
     s        2
                                                                 

     Band symmetry, C_s (m)     point group:

     e(  1 -  1) =    -21.03442  eV     1   --> A'             
     e(  2 -  2) =     -9.19435  eV     1   --> A''            
     e(  3 -  3) =     -5.18254  eV     1   --> A'             
     e(  4 -  4) =     -4.80376  eV     1   --> A'             
     e(  5 -  5) =      1.46666  eV     1   --> A'             
     e(  6 -  6) =      2.33981  eV     1   --> A''            
     e(  7 -  7) =      2.73467  eV     1   --> A'             
     e(  8 -  8) =      4.64663  eV     1   --> A''            

 **************************************************************************

 **************************************************************************

                    xk=(   0.02500,   0.01443,   0.00000  )

     Band symmetry, C_s (m)     point group:

     e(  1 -  1) =    -21.02412  eV     1   --> A'             
     e(  2 -  2) =     -9.18217  eV     1   --> A''            
     e(  3 -  3) =     -5.22926  eV     1   --> A'             
     e(  4 -  4) =     -4.82567  eV     1   --> A'             
     e(  5 -  5) =      1.48060  eV     1   --> A'             
     e(  6 -  6) =      2.35390  eV     1   --> A''            
     e(  7 -  7) =      2.74886  eV     1   --> A'             
     e(  8 -  8) =      4.66059  eV     1   --> A''            

 **************************************************************************

 **************************************************************************

                    xk=(   0.03750,   0.02165,   0.00000  )

     Band symmetry, C_s (m)     point group:

     e(  1 -  1) =    -21.00697  eV     1   --> A'             
     e(  2 -  2) =     -9.16189  eV     1   --> A''            
     e(  3 -  3) =     -5.30659  eV     1   --> A'             
     e(  4 -  4) =     -4.86131  eV     1   --> A'             
     e(  5 -  5) =      1.50384  eV     1   --> A'             
     e(  6 -  6) =      2.37737  eV     1   --> A''            
     e(  7 -  7) =      2.77251  eV     1   --> A'             
     e(  8 -  8) =      4.68384  eV     1   --> A''            

 **************************************************************************

 **************************************************************************

                    xk=(   0.05000,   0.02887,   0.00000  )

     Band symmetry, C_s (m)     point group:

     e(  1 -  1) =    -20.98297  eV     1   --> A'             
     e(  2 -  2) =     -9.13350  eV     1   --> A''            
     e(  3 -  3) =     -5.41360  eV     1   --> A'             
     e(  4 -  4) =     -4.90965  eV     1   --> A'             
     e(  5 -  5) =      1.53638  eV     1   --> A'             
     e(  6 -  6) =      2.41022  eV     1   --> A''            
     e(  7 -  7) =      2.80563  eV     1   --> A'             
     e(  8 -  8) =      4.71638  eV     1   --> A''            

 **************************************************************************

 **************************************************************************

                    xk=(   0.06250,   0.03608,   0.00000  )

     Band symmetry, C_s (m)     point group:

     e(  1 -  1) =    -20.95212  eV     1   --> A'             
     e(  2 -  2) =     -9.09703  eV     1   --> A''            
     e(  3 -  3) =     -5.54878  eV     1   --> A'             
     e(  4 -  4) =     -4.96961  eV     1   --> A'             
     e(  5 -  5) =      1.57824  eV     1   --> A'             
     e(  6 -  6) =      2.45245  eV     1   --> A''            
     e(  7 -  7) =      2.84821  eV     1   --> A'             
     e(  8 -  8) =      4.75820  eV     1   --> A''            

 **************************************************************************

 **************************************************************************

                    xk=(   0.07500,   0.04330,   0.00000  )

     Band symmetry, C_s (m)     point group:

     e(  1 -  1) =    -20.91443  eV     1   --> A'             
     e(  2 -  2) =     -9.05250  eV     1   --> A''            
     e(  3 -  3) =     -5.71018  eV     1   --> A'             
     e(  4 -  4) =     -5.04008  eV     1   --> A'             
     e(  5 -  5) =      1.62941  eV     1   --> A'             
     e(  6 -  6) =      2.50405  eV     1   --> A''            
     e(  7 -  7) =      2.90027  eV     1   --> A'             
     e(  8 -  8) =      4.80928  eV     1   --> A''            

 **************************************************************************

 **************************************************************************

                    xk=(   0.08750,   0.05052,   0.00000  )

     Band symmetry, C_s (m)     point group:

     e(  1 -  1) =    -20.86991  eV     1   --> A'             
     e(  2 -  2) =     -8.99995  eV     1   --> A''            
     e(  3 -  3) =     -5.89556  eV     1   --> A'             
     e(  4 -  4) =     -5.11997  eV     1   --> A'             
     e(  5 -  5) =      1.68991  eV     1   --> A'             
     e(  6 -  6) =      2.56501  eV     1   --> A''            
     e(  7 -  7) =      2.96181  eV     1   --> A'             
     e(  8 -  8) =      4.86960  eV     1   --> A''            

 **************************************************************************

 **************************************************************************

                    xk=(   0.10000,   0.05774,   0.00000  )

     Band symmetry, C_s (m)     point group:

     e(  1 -  1) =    -20.81857  eV     1   --> A'             
     e(  2 -  2) =     -8.93940  eV     1   --> A''            
     e(  3 -  3) =     -6.10255  eV     1   --> A'             
     e(  4 -  4) =     -5.20818  eV     1   --> A'             
     e(  5 -  5) =      1.75974  eV     1   --> A'             
     e(  6 -  6) =      2.63532  eV     1   --> A''            
     e(  7 -  7) =      3.03283  eV     1   --> A'             
     e(  8 -  8) =      4.93911  eV     1   --> A''            

 **************************************************************************

 **************************************************************************

                    xk=(   0.11250,   0.06495,   0.00000  )

     Band symmetry, C_s (m)     point group:

     e(  1 -  1) =    -20.76043  eV     1   --> A'             
     e(  2 -  2) =     -8.87090  eV     1   --> A''            
     e(  3 -  3) =     -6.32876  eV     1   --> A'             
     e(  4 -  4) =     -5.30360  eV     1   --> A'             
     e(  5 -  5) =      1.83889  eV     1   --> A'             
     e(  6 -  6) =      2.71495  eV     1   --> A''            
     e(  7 -  7) =      3.11333  eV     1   --> A'             
     e(  8 -  8) =      5.01777  eV     1   --> A''            

 **************************************************************************

 **************************************************************************

                    xk=(   0.12500,   0.07217,   0.00000  )

     Band symmetry, C_s (m)     point group:

     e(  1 -  1) =    -20.69551  eV     1   --> A'             
     e(  2 -  2) =     -8.79450  eV     1   --> A''            
     e(  3 -  3) =     -6.57185  eV     1   --> A'             
     e(  4 -  4) =     -5.40512  eV     1   --> A'             
     e(  5 -  5) =      1.92737  eV     1   --> A'             
     e(  6 -  6) =      2.80389  eV     1   --> A''            
     e(  7 -  7) =      3.20331  eV     1   --> A'             
     e(  8 -  8) =      5.10550  eV     1   --> A''            

 **************************************************************************

 **************************************************************************

                    xk=(   0.13750,   0.07939,   0.00000  )

     Band symmetry, C_s (m)     point group:

     e(  1 -  1) =    -20.62382  eV     1   --> A'             
     e(  2 -  2) =     -8.71026  eV     1   --> A''            
     e(  3 -  3) =     -6.82965  eV     1   --> A'             
     e(  4 -  4) =     -5.51163  eV     1   --> A'             
     e(  5 -  5) =      2.02518  eV     1   --> A'             
     e(  6 -  6) =      2.90209  eV     1   --> A''            
     e(  7 -  7) =      3.30278  eV     1   --> A'             
     e(  8 -  8) =      5.20214  eV     1   --> A''            

 **************************************************************************

 **************************************************************************

                    xk=(   0.15000,   0.08660,   0.00000  )

     Band symmetry, C_s (m)     point group:

     e(  1 -  1) =    -20.54539  eV     1   --> A'             
     e(  2 -  2) =     -8.61823  eV     1   --> A''            
     e(  3 -  3) =     -7.10009  eV     1   --> A'             
     e(  4 -  4) =     -5.62209  eV     1   --> A'             
     e(  5 -  5) =      2.13231  eV     1   --> A'             
     e(  6 -  6) =      3.00952  eV     1   --> A''            
     e(  7 -  7) =      3.41172  eV     1   --> A'             
     e(  8 -  8) =      5.30746  eV     1   --> A''            

 **************************************************************************

 **************************************************************************

                    xk=(   0.16250,   0.09382,   0.00000  )

     Band symmetry, C_s (m)     point group:

     e(  1 -  1) =    -20.46024  eV     1   --> A'             
     e(  2 -  2) =     -8.51850  eV     1   --> A''            
     e(  3 -  3) =     -7.38132  eV     1   --> A'             
     e(  4 -  4) =     -5.73547  eV     1   --> A'             
     e(  5 -  5) =      2.24876  eV     1   --> A'             
     e(  6 -  6) =      3.12611  eV     1   --> A''            
     e(  7 -  7) =      3.53014  eV     1   --> A'             
     e(  8 -  8) =      5.42095  eV     1   --> A''            

 **************************************************************************

 **************************************************************************

                    xk=(   0.17500,   0.10104,   0.00000  )

     Band symmetry, C_s (m)     point group:

     e(  1 -  1) =    -20.36840  eV     1   --> A'             
     e(  2 -  2) =     -8.41114  eV     1   --> A''            
     e(  3 -  3) =     -7.67160  eV     1   --> A'             
     e(  4 -  4) =     -5.85083  eV     1   --> A'             
     e(  5 -  5) =      2.37450  eV     1   --> A'             
     e(  6 -  6) =      3.25176  eV     1   --> A''            
     e(  7 -  7) =      3.65803  eV     1   --> A'             
     e(  8 -  8) =      5.54137  eV     1   --> A''            

 **************************************************************************

 **************************************************************************

                    xk=(   0.18750,   0.10825,   0.00000  )

     Band symmetry, C_s (m)     point group:

     e(  1 -  1) =    -20.26991  eV     1   --> A'             
     e(  2 -  2) =     -8.29627  eV     1   --> A''            
     e(  3 -  3) =     -7.96941  eV     1   --> A'             
     e(  4 -  4) =     -5.96727  eV     1   --> A'             
     e(  5 -  5) =      2.50954  eV     1   --> A'             
     e(  6 -  6) =      3.38631  eV     1   --> A''            
     e(  7 -  7) =      3.79539  eV     1   --> A'             
     e(  8 -  8) =      5.66479  eV     1   --> A''            

 **************************************************************************

 **************************************************************************

                    xk=(   0.20000,   0.11547,   0.00000  )

     Band symmetry, C_s (m)     point group:

     e(  1 -  1) =    -20.16479  eV     1   --> A'             
     e(  2 -  2) =     -8.27334  eV     1   --> A'             
     e(  3 -  3) =     -8.17399  eV     1   --> A''            
     e(  4 -  4) =     -6.08398  eV     1   --> A'             
     e(  5 -  5) =      2.65385  eV     1   --> A'             
     e(  6 -  6) =      3.52950  eV     1   --> A''            
     e(  7 -  7) =      3.94221  eV     1   --> A'             
     e(  8 -  8) =      5.77073  eV     1   --> A''            

 **************************************************************************

 **************************************************************************

                    xk=(   0.21250,   0.12269,   0.00000  )

     Band symmetry, C_s (m)     point group:

     e(  1 -  1) =    -20.05309  eV     1   --> A'             
     e(  2 -  2) =     -8.58212  eV     1   --> A'             
     e(  3 -  3) =     -8.04444  eV     1   --> A''            
     e(  4 -  4) =     -6.20021  eV     1   --> A'             
     e(  5 -  5) =      2.80742  eV     1   --> A'             
     e(  6 -  6) =      3.68081  eV     1   --> A''            
     e(  7 -  7) =      4.09847  eV     1   --> A'             
     e(  8 -  8) =      5.72356  eV     1   --> A''            

 **************************************************************************

 **************************************************************************

                    xk=(   0.22500,   0.12990,   0.00000  )

     Band symmetry, C_s (m)     point group:

     e(  1 -  1) =    -19.93485  eV     1   --> A'             
     e(  2 -  2) =     -8.89464  eV     1   --> A'             
     e(  3 -  3) =     -7.90776  eV     1   --> A''            
     e(  4 -  4) =     -6.31525  eV     1   --> A'             
     e(  5 -  5) =      2.97023  eV     1   --> A'             
     e(  6 -  6) =      3.83915  eV     1   --> A''            
     e(  7 -  7) =      4.26417  eV     1   --> A'             
     e(  8 -  8) =      5.47390  eV     1   --> A''            

 **************************************************************************

 **************************************************************************

                    xk=(   0.23750,   0.13712,   0.00000  )

     Band symmetry, C_s (m)     point group:

     e(  1 -  1) =    -19.81014  eV     1   --> A'             
     e(  2 -  2) =     -9.20987  eV     1   --> A'             
     e(  3 -  3) =     -7.76413  eV     1   --> A''            
     e(  4 -  4) =     -6.42849  eV     1   --> A'             
     e(  5 -  5) =      3.14227  eV     1   --> A'             
     e(  6 -  6) =      4.00161  eV     1   --> A''            
     e(  7 -  7) =      4.43928  eV     1   --> A'             
     e(  8 -  8) =      5.18368  eV     1   --> A''            

 **************************************************************************

 **************************************************************************

                    xk=(   0.25000,   0.14434,   0.00000  )

     Band symmetry, C_s (m)     point group:

     e(  1 -  1) =    -19.67899  eV     1   --> A'             
     e(  2 -  2) =     -9.52688  eV     1   --> A'             
     e(  3 -  3) =     -7.61374  eV     1   --> A''            
     e(  4 -  4) =     -6.53936  eV     1   --> A'             
     e(  5 -  5) =      3.32349  eV     1   --> A'             
     e(  6 -  6) =      4.15758  eV     1   --> A''            
     e(  7 -  7) =      4.62377  eV     1   --> A'             
     e(  8 -  8) =      4.89605  eV     1   --> A''            

 **************************************************************************

 **************************************************************************

                    xk=(   0.26250,   0.15155,   0.00000  )

     Band symmetry, C_s (m)     point group:

     e(  1 -  1) =    -19.54150  eV     1   --> A'             
     e(  2 -  2) =     -9.84484  eV     1   --> A'             
     e(  3 -  3) =     -7.45684  eV     1   --> A''            
     e(  4 -  4) =     -6.64735  eV     1   --> A'             
     e(  5 -  5) =      3.51387  eV     1   --> A'             
     e(  6 -  6) =      4.24713  eV     1   --> A''            
     e(  7 -  7) =      4.67744  eV     1   --> A''            
     e(  8 -  8) =      4.81759  eV     1   --> A'             

 **************************************************************************

 **************************************************************************

                    xk=(   0.27500,   0.15877,   0.00000  )

     Band symmetry, C_s (m)     point group:

     e(  1 -  1) =    -19.39772  eV     1   --> A'             
     e(  2 -  2) =    -10.16299  eV     1   --> A'             
     e(  3 -  3) =     -7.29369  eV     1   --> A''            
     e(  4 -  4) =     -6.75198  eV     1   --> A'             
     e(  5 -  5) =      3.71337  eV     1   --> A'             
     e(  6 -  6) =      4.09883  eV     1   --> A''            
     e(  7 -  7) =      4.70192  eV     1   --> A''            
     e(  8 -  8) =      5.02067  eV     1   --> A'             

 **************************************************************************

 **************************************************************************

                    xk=(   0.28750,   0.16599,   0.00000  )

     Band symmetry, C_s (m)     point group:

     e(  1 -  1) =    -19.24777  eV     1   --> A'             
     e(  2 -  2) =    -10.48061  eV     1   --> A'             
     e(  3 -  3) =     -7.12461  eV     1   --> A''            
     e(  4 -  4) =     -6.85286  eV     1   --> A'             
     e(  5 -  5) =      3.81294  eV     1   --> A''            
     e(  6 -  6) =      3.92194  eV     1   --> A'             
     e(  7 -  7) =      4.87098  eV     1   --> A''            
     e(  8 -  8) =      5.23284  eV     1   --> A'             

 **************************************************************************

 **************************************************************************

                    xk=(   0.30000,   0.17321,   0.00000  )

     Band symmetry, C_s (m)     point group:

     e(  1 -  1) =    -19.09173  eV     1   --> A'             
     e(  2 -  2) =    -10.79707  eV     1   --> A'             
     e(  3 -  3) =     -6.95000  eV     1   --> A''            
     e(  4 -  4) =     -6.94961  eV     1   --> A'             
     e(  5 -  5) =      3.49958  eV     1   --> A''            
     e(  6 -  6) =      4.13949  eV     1   --> A'             
     e(  7 -  7) =      5.07592  eV     1   --> A''            
     e(  8 -  8) =      5.45375  eV     1   --> A'             

 **************************************************************************

 **************************************************************************

                    xk=(   0.31250,   0.18042,   0.00000  )

     Band symmetry, C_s (m)     point group:

     e(  1 -  1) =    -18.92976  eV     1   --> A'             
     e(  2 -  2) =    -11.11174  eV     1   --> A'             
     e(  3 -  3) =     -7.04188  eV     1   --> A'             
     e(  4 -  4) =     -6.77030  eV     1   --> A''            
     e(  5 -  5) =      3.17928  eV     1   --> A''            
     e(  6 -  6) =      4.36594  eV     1   --> A'             
     e(  7 -  7) =      5.29754  eV     1   --> A''            
     e(  8 -  8) =      5.68234  eV     1   --> A'             

 **************************************************************************

 **************************************************************************

                    xk=(   0.32500,   0.18764,   0.00000  )

     Band symmetry, C_s (m)     point group:

     e(  1 -  1) =    -18.76199  eV     1   --> A'             
     e(  2 -  2) =    -11.42405  eV     1   --> A'             
     e(  3 -  3) =     -7.12938  eV     1   --> A'             
     e(  4 -  4) =     -6.58607  eV     1   --> A''            
     e(  5 -  5) =      2.85782  eV     1   --> A''            
     e(  6 -  6) =      4.60112  eV     1   --> A'             
     e(  7 -  7) =      5.53132  eV     1   --> A''            
     e(  8 -  8) =      5.91389  eV     1   --> A'             

 **************************************************************************

 **************************************************************************

                    xk=(   0.33750,   0.19486,   0.00000  )

     Band symmetry, C_s (m)     point group:

     e(  1 -  1) =    -18.58862  eV     1   --> A'             
     e(  2 -  2) =    -11.73340  eV     1   --> A'             
     e(  3 -  3) =     -7.21186  eV     1   --> A'             
     e(  4 -  4) =     -6.39798  eV     1   --> A''            
     e(  5 -  5) =      2.53809  eV     1   --> A''            
     e(  6 -  6) =      4.84476  eV     1   --> A'             
     e(  7 -  7) =      5.77569  eV     1   --> A''            
     e(  8 -  8) =      6.10148  eV     1   --> A'             

 **************************************************************************

 **************************************************************************

                    xk=(   0.35000,   0.20207,   0.00000  )

     Band symmetry, C_s (m)     point group:

     e(  1 -  1) =    -18.40991  eV     1   --> A'             
     e(  2 -  2) =    -12.03923  eV     1   --> A'             
     e(  3 -  3) =     -7.28906  eV     1   --> A'             
     e(  4 -  4) =     -6.20685  eV     1   --> A''            
     e(  5 -  5) =      2.22217  eV     1   --> A''            
     e(  6 -  6) =      5.09633  eV     1   --> A'             
     e(  7 -  7) =      6.02995  eV     1   --> A''            
     e(  8 -  8) =      6.12645  eV     1   --> A'             

 **************************************************************************

 **************************************************************************

                    xk=(   0.36250,   0.20929,   0.00000  )

     Band symmetry, C_s (m)     point group:

     e(  1 -  1) =    -18.22616  eV     1   --> A'             
     e(  2 -  2) =    -12.34091  eV     1   --> A'             
     e(  3 -  3) =     -7.36078  eV     1   --> A'             
     e(  4 -  4) =     -6.01370  eV     1   --> A''            
     e(  5 -  5) =      1.91195  eV     1   --> A''            
     e(  6 -  6) =      5.35451  eV     1   --> A'             
     e(  7 -  7) =      6.11071  eV     1   --> A'             
     e(  8 -  8) =      6.29371  eV     1   --> A''            

 **************************************************************************

 **************************************************************************

                    xk=(   0.37500,   0.21651,   0.00000  )

     Band symmetry, C_s (m)     point group:

     e(  1 -  1) =    -18.03779  eV     1   --> A'             
     e(  2 -  2) =    -12.63777  eV     1   --> A'             
     e(  3 -  3) =     -7.42683  eV     1   --> A'             
     e(  4 -  4) =     -5.81979  eV     1   --> A''            
     e(  5 -  5) =      1.60937  eV     1   --> A''            
     e(  6 -  6) =      5.61494  eV     1   --> A'             
     e(  7 -  7) =      6.09737  eV     1   --> A'             
     e(  8 -  8) =      6.56674  eV     1   --> A''            

 **************************************************************************

 **************************************************************************

                    xk=(   0.38750,   0.22372,   0.00000  )

     Band symmetry, C_s (m)     point group:

     e(  1 -  1) =    -17.84534  eV     1   --> A'             
     e(  2 -  2) =    -12.92901  eV     1   --> A'             
     e(  3 -  3) =     -7.48704  eV     1   --> A'             
     e(  4 -  4) =     -5.62671  eV     1   --> A''            
     e(  5 -  5) =      1.31657  eV     1   --> A''            
     e(  6 -  6) =      5.85348  eV     1   --> A'             
     e(  7 -  7) =      6.11487  eV     1   --> A'             
     e(  8 -  8) =      6.84885  eV     1   --> A''            

 **************************************************************************

 **************************************************************************

                    xk=(   0.40000,   0.23094,   0.00000  )

     Band symmetry, C_s (m)     point group:

     e(  1 -  1) =    -17.64960  eV     1   --> A'             
     e(  2 -  2) =    -13.21366  eV     1   --> A'             
     e(  3 -  3) =     -7.54127  eV     1   --> A'             
     e(  4 -  4) =     -5.43650  eV     1   --> A''            
     e(  5 -  5) =      1.03602  eV     1   --> A''            
     e(  6 -  6) =      5.96408  eV     1   --> A'             
     e(  7 -  7) =      6.27041  eV     1   --> A'             
     e(  8 -  8) =      7.13987  eV     1   --> A''            

 **************************************************************************

 **************************************************************************

                    xk=(   0.41250,   0.23816,   0.00000  )

     Band symmetry, C_s (m)     point group:

     e(  1 -  1) =    -17.45169  eV     1   --> A'             
     e(  2 -  2) =    -13.49041  eV     1   --> A'             
     e(  3 -  3) =     -7.58941  eV     1   --> A'             
     e(  4 -  4) =     -5.25169  eV     1   --> A''            
     e(  5 -  5) =      0.77066  eV     1   --> A''            
     e(  6 -  6) =      5.97177  eV     1   --> A'             
     e(  7 -  7) =      6.53939  eV     1   --> A'             
     e(  8 -  8) =      7.43965  eV     1   --> A''            

 **************************************************************************

 **************************************************************************

                    xk=(   0.42500,   0.24537,   0.00000  )

     Band symmetry, C_s (m)     point group:

     e(  1 -  1) =    -17.25331  eV     1   --> A'             
     e(  2 -  2) =    -13.75742  eV     1   --> A'             
     e(  3 -  3) =     -7.63133  eV     1   --> A'             
     e(  4 -  4) =     -5.07550  eV     1   --> A''            
     e(  5 -  5) =      0.52403  eV     1   --> A''            
     e(  6 -  6) =      5.96192  eV     1   --> A'             
     e(  7 -  7) =      6.83662  eV     1   --> A'             
     e(  8 -  8) =      7.74801  eV     1   --> A''            

 **************************************************************************

 **************************************************************************

                    xk=(   0.43750,   0.25259,   0.00000  )

     Band symmetry, C_s (m)     point group:

     e(  1 -  1) =    -17.05709  eV     1   --> A'             
     e(  2 -  2) =    -14.01193  eV     1   --> A'             
     e(  3 -  3) =     -7.66695  eV     1   --> A'             
     e(  4 -  4) =     -4.91195  eV     1   --> A''            
     e(  5 -  5) =      0.30044  eV     1   --> A''            
     e(  6 -  6) =      5.94971  eV     1   --> A'             
     e(  7 -  7) =      7.14693  eV     1   --> A'             
     e(  8 -  8) =      8.06477  eV     1   --> A''            

 **************************************************************************

 **************************************************************************

                    xk=(   0.45000,   0.25981,   0.00000  )

     Band symmetry, C_s (m)     point group:

     e(  1 -  1) =    -16.86733  eV     1   --> A'             
     e(  2 -  2) =    -14.24951  eV     1   --> A'             
     e(  3 -  3) =     -7.69620  eV     1   --> A'             
     e(  4 -  4) =     -4.76591  eV     1   --> A''            
     e(  5 -  5) =      0.10496  eV     1   --> A''            
     e(  6 -  6) =      5.93837  eV     1   --> A'             
     e(  7 -  7) =      7.46697  eV     1   --> A'             
     e(  8 -  8) =      8.38967  eV     1   --> A''            

 **************************************************************************

 **************************************************************************

                    xk=(   0.46250,   0.26702,   0.00000  )

     Band symmetry, C_s (m)     point group:

     e(  1 -  1) =    -16.69128  eV     1   --> A'             
     e(  2 -  2) =    -14.46284  eV     1   --> A'             
     e(  3 -  3) =     -7.71900  eV     1   --> A'             
     e(  4 -  4) =     -4.64301  eV     1   --> A''            
     e(  5 -  5) =     -0.05657  eV     1   --> A''            
     e(  6 -  6) =      5.92900  eV     1   --> A'             
     e(  7 -  7) =      7.79529  eV     1   --> A'             
     e(  8 -  8) =      8.72234  eV     1   --> A''            

 **************************************************************************

 **************************************************************************

                    xk=(   0.47500,   0.27424,   0.00000  )

     Band symmetry, C_s (m)     point group:

     e(  1 -  1) =    -16.54112  eV     1   --> A'             
     e(  2 -  2) =    -14.63969  eV     1   --> A'             
     e(  3 -  3) =     -7.73533  eV     1   --> A'             
     e(  4 -  4) =     -4.54926  eV     1   --> A''            
     e(  5 -  5) =     -0.17802  eV     1   --> A''            
     e(  6 -  6) =      5.92208  eV     1   --> A'             
     e(  7 -  7) =      8.13045  eV     1   --> A'             
     e(  8 -  8) =      9.06215  eV     1   --> A''            

 **************************************************************************

 **************************************************************************

                    xk=(   0.48750,   0.28146,   0.00000  )

     Band symmetry, C_s (m)     point group:

     e(  1 -  1) =    -16.43570  eV     1   --> A'             
     e(  2 -  2) =    -14.76114  eV     1   --> A'             
     e(  3 -  3) =     -7.74514  eV     1   --> A'             
     e(  4 -  4) =     -4.49026  eV     1   --> A''            
     e(  5 -  5) =     -0.25367  eV     1   --> A''            
     e(  6 -  6) =      5.91785  eV     1   --> A'             
     e(  7 -  7) =      8.46846  eV     1   --> A'             
     e(  8 -  8) =      9.20452  eV     1   --> A'             

 **************************************************************************

 **************************************************************************

                    xk=(   0.50000,   0.28868,   0.00000  )

     zone border point and non-symmorphic group 
     symmetry decomposition not available

 **************************************************************************

 **************************************************************************

                    xk=(   0.49583,   0.29628,   0.00000  )

     point group C_s (m)    
     there are  2 classes
     the character table:

       E     s    
A'     1.00  1.00
A''    1.00 -1.00

     the symmetry operations in each class and the name of the first element:

     E        1
                                                                 
     s        2
                                                                 

     Band symmetry, C_s (m)     point group:

     e(  1 -  1) =    -16.39587  eV     1   --> A'             
     e(  2 -  2) =    -14.80416  eV     1   --> A'             
     e(  3 -  3) =     -7.75417  eV     1   --> A'             
     e(  4 -  4) =     -4.46860  eV     1   --> A''            
     e(  5 -  5) =     -0.27957  eV     1   --> A''            
     e(  6 -  6) =      5.92408  eV     1   --> A'             
     e(  7 -  7) =      8.73477  eV     1   --> A'             
     e(  8 -  8) =      8.93603  eV     1   --> A'             

 **************************************************************************

 **************************************************************************

                    xk=(   0.49167,   0.30388,   0.00000  )

     Band symmetry, C_s (m)     point group:

     e(  1 -  1) =    -16.39265  eV     1   --> A'             
     e(  2 -  2) =    -14.80095  eV     1   --> A'             
     e(  3 -  3) =     -7.77141  eV     1   --> A'             
     e(  4 -  4) =     -4.46413  eV     1   --> A''            
     e(  5 -  5) =     -0.28009  eV     1   --> A''            
     e(  6 -  6) =      5.94698  eV     1   --> A'             
     e(  7 -  7) =      8.73860  eV     1   --> A'             
     e(  8 -  8) =      8.94117  eV     1   --> A'             

 **************************************************************************

 **************************************************************************

                    xk=(   0.48750,   0.31148,   0.00000  )

     Band symmetry, C_s (m)     point group:

     e(  1 -  1) =    -16.38727  eV     1   --> A'             
     e(  2 -  2) =    -14.79560  eV     1   --> A'             
     e(  3 -  3) =     -7.80001  eV     1   --> A'             
     e(  4 -  4) =     -4.45667  eV     1   --> A''            
     e(  5 -  5) =     -0.28097  eV     1   --> A''            
     e(  6 -  6) =      5.98500  eV     1   --> A'             
     e(  7 -  7) =      8.74499  eV     1   --> A'             
     e(  8 -  8) =      8.94974  eV     1   --> A'             

 **************************************************************************

 **************************************************************************

                    xk=(   0.48333,   0.31908,   0.00000  )

     Band symmetry, C_s (m)     point group:

     e(  1 -  1) =    -16.37975  eV     1   --> A'             
     e(  2 -  2) =    -14.78811  eV     1   --> A'             
     e(  3 -  3) =     -7.83974  eV     1   --> A'             
     e(  4 -  4) =     -4.44623  eV     1   --> A''            
     e(  5 -  5) =     -0.28225  eV     1   --> A''            
     e(  6 -  6) =      6.03791  eV     1   --> A'             
     e(  7 -  7) =      8.75393  eV     1   --> A'             
     e(  8 -  8) =      8.96171  eV     1   --> A'             

 **************************************************************************

 **************************************************************************

                    xk=(   0.47917,   0.32668,   0.00000  )

     Band symmetry, C_s (m)     point group:

     e(  1 -  1) =    -16.37008  eV     1   --> A'             
     e(  2 -  2) =    -14.77850  eV     1   --> A'             
     e(  3 -  3) =     -7.89032  eV     1   --> A'             
     e(  4 -  4) =     -4.43281  eV     1   --> A''            
     e(  5 -  5) =     -0.28397  eV     1   --> A''            
     e(  6 -  6) =      6.10537  eV     1   --> A'             
     e(  7 -  7) =      8.76544  eV     1   --> A'             
     e(  8 -  8) =      8.97706  eV     1   --> A'             

 **************************************************************************

 **************************************************************************

                    xk=(   0.47500,   0.33429,   0.00000  )

     Band symmetry, C_s (m)     point group:

     e(  1 -  1) =    -16.35827  eV     1   --> A'             
     e(  2 -  2) =    -14.76677  eV     1   --> A'             
     e(  3 -  3) =     -7.95138  eV     1   --> A'             
     e(  4 -  4) =     -4.41640  eV     1   --> A''            
     e(  5 -  5) =     -0.28619  eV     1   --> A''            
     e(  6 -  6) =      6.18699  eV     1   --> A'             
     e(  7 -  7) =      8.77951  eV     1   --> A'             
     e(  8 -  8) =      8.99578  eV     1   --> A'             

 **************************************************************************

 **************************************************************************

                    xk=(   0.47083,   0.34189,   0.00000  )

     Band symmetry, C_s (m)     point group:

     e(  1 -  1) =    -16.34430  eV     1   --> A'             
     e(  2 -  2) =    -14.75294  eV     1   --> A'             
     e(  3 -  3) =     -8.02251  eV     1   --> A'             
     e(  4 -  4) =     -4.39703  eV     1   --> A''            
     e(  5 -  5) =     -0.28898  eV     1   --> A''            
     e(  6 -  6) =      6.28232  eV     1   --> A'             
     e(  7 -  7) =      8.79614  eV     1   --> A'             
     e(  8 -  8) =      9.01783  eV     1   --> A'             

 **************************************************************************

 **************************************************************************

                    xk=(   0.46667,   0.34949,   0.00000  )

     Band symmetry, C_s (m)     point group:

     e(  1 -  1) =    -16.32819  eV     1   --> A'             
     e(  2 -  2) =    -14.73703  eV     1   --> A'             
     e(  3 -  3) =     -8.10323  eV     1   --> A'             
     e(  4 -  4) =     -4.37467  eV     1   --> A''            
     e(  5 -  5) =     -0.29243  eV     1   --> A''            
     e(  6 -  6) =      6.39081  eV     1   --> A'             
     e(  7 -  7) =      8.81533  eV     1   --> A'             
     e(  8 -  8) =      9.04319  eV     1   --> A'             

 **************************************************************************

 **************************************************************************

                    xk=(   0.46250,   0.35709,   0.00000  )

     Band symmetry, C_s (m)     point group:

     e(  1 -  1) =    -16.30994  eV     1   --> A'             
     e(  2 -  2) =    -14.71905  eV     1   --> A'             
     e(  3 -  3) =     -8.19303  eV     1   --> A'             
     e(  4 -  4) =     -4.34935  eV     1   --> A''            
     e(  5 -  5) =     -0.29663  eV     1   --> A''            
     e(  6 -  6) =      6.51190  eV     1   --> A'             
     e(  7 -  7) =      8.83709  eV     1   --> A'             
     e(  8 -  8) =      9.07181  eV     1   --> A'             

 **************************************************************************

 **************************************************************************

                    xk=(   0.45833,   0.36469,   0.00000  )

     Band symmetry, C_s (m)     point group:

     e(  1 -  1) =    -16.28953  eV     1   --> A'             
     e(  2 -  2) =    -14.69902  eV     1   --> A'             
     e(  3 -  3) =     -8.29137  eV     1   --> A'             
     e(  4 -  4) =     -4.32106  eV     1   --> A''            
     e(  5 -  5) =     -0.30168  eV     1   --> A''            
     e(  6 -  6) =      6.64496  eV     1   --> A'             
     e(  7 -  7) =      8.86138  eV     1   --> A'             
     e(  8 -  8) =      9.10368  eV     1   --> A'             

 **************************************************************************

 **************************************************************************

                    xk=(   0.45417,   0.37229,   0.00000  )

     Band symmetry, C_s (m)     point group:

     e(  1 -  1) =    -16.26699  eV     1   --> A'             
     e(  2 -  2) =    -14.67697  eV     1   --> A'             
     e(  3 -  3) =     -8.39769  eV     1   --> A'             
     e(  4 -  4) =     -4.28980  eV     1   --> A''            
     e(  5 -  5) =     -0.30772  eV     1   --> A''            
     e(  6 -  6) =      6.78933  eV     1   --> A'             
     e(  7 -  7) =      8.88822  eV     1   --> A'             
     e(  8 -  8) =      9.13875  eV     1   --> A'             

 **************************************************************************

 **************************************************************************

                    xk=(   0.45000,   0.37990,   0.00000  )

     Band symmetry, C_s (m)     point group:

     e(  1 -  1) =    -16.24230  eV     1   --> A'             
     e(  2 -  2) =    -14.65293  eV     1   --> A'             
     e(  3 -  3) =     -8.51141  eV     1   --> A'             
     e(  4 -  4) =     -4.25558  eV     1   --> A''            
     e(  5 -  5) =     -0.31488  eV     1   --> A''            
     e(  6 -  6) =      6.94433  eV     1   --> A'             
     e(  7 -  7) =      8.91756  eV     1   --> A'             
     e(  8 -  8) =      9.17698  eV     1   --> A'             

 **************************************************************************

 **************************************************************************

                    xk=(   0.44583,   0.38750,   0.00000  )

     Band symmetry, C_s (m)     point group:

     e(  1 -  1) =    -16.21547  eV     1   --> A'             
     e(  2 -  2) =    -14.62694  eV     1   --> A'             
     e(  3 -  3) =     -8.63194  eV     1   --> A'             
     e(  4 -  4) =     -4.21841  eV     1   --> A''            
     e(  5 -  5) =     -0.32329  eV     1   --> A''            
     e(  6 -  6) =      7.10926  eV     1   --> A'             
     e(  7 -  7) =      8.94939  eV     1   --> A'             
     e(  8 -  8) =      9.21835  eV     1   --> A'             

 **************************************************************************

 **************************************************************************

                    xk=(   0.44167,   0.39510,   0.00000  )

     Band symmetry, C_s (m)     point group:

     e(  1 -  1) =    -16.18650  eV     1   --> A'             
     e(  2 -  2) =    -14.59903  eV     1   --> A'             
     e(  3 -  3) =     -8.75870  eV     1   --> A'             
     e(  4 -  4) =     -4.17828  eV     1   --> A''            
     e(  5 -  5) =     -0.33313  eV     1   --> A''            
     e(  6 -  6) =      7.28336  eV     1   --> A'             
     e(  7 -  7) =      8.98369  eV     1   --> A'             
     e(  8 -  8) =      9.26281  eV     1   --> A'             

 **************************************************************************

 **************************************************************************

                    xk=(   0.43750,   0.40270,   0.00000  )

     Band symmetry, C_s (m)     point group:

     e(  1 -  1) =    -16.15539  eV     1   --> A'             
     e(  2 -  2) =    -14.56926  eV     1   --> A'             
     e(  3 -  3) =     -8.89113  eV     1   --> A'             
     e(  4 -  4) =     -4.13521  eV     1   --> A''            
     e(  5 -  5) =     -0.34457  eV     1   --> A''            
     e(  6 -  6) =      7.46589  eV     1   --> A'             
     e(  7 -  7) =      9.02041  eV     1   --> A'             
     e(  8 -  8) =      9.31034  eV     1   --> A'             

 **************************************************************************

 **************************************************************************

                    xk=(   0.43333,   0.41030,   0.00000  )

     Band symmetry, C_s (m)     point group:

     e(  1 -  1) =    -16.12214  eV     1   --> A'             
     e(  2 -  2) =    -14.53768  eV     1   --> A'             
     e(  3 -  3) =     -9.02865  eV     1   --> A'             
     e(  4 -  4) =     -4.08921  eV     1   --> A''            
     e(  5 -  5) =     -0.35778  eV     1   --> A''            
     e(  6 -  6) =      7.65606  eV     1   --> A'             
     e(  7 -  7) =      9.05952  eV     1   --> A'             
     e(  8 -  8) =      9.36090  eV     1   --> A'             

 **************************************************************************

 **************************************************************************

                    xk=(   0.42917,   0.41791,   0.00000  )

     Band symmetry, C_s (m)     point group:

     e(  1 -  1) =    -16.08675  eV     1   --> A'             
     e(  2 -  2) =    -14.50434  eV     1   --> A'             
     e(  3 -  3) =     -9.17069  eV     1   --> A'             
     e(  4 -  4) =     -4.04027  eV     1   --> A''            
     e(  5 -  5) =     -0.37295  eV     1   --> A''            
     e(  6 -  6) =      7.85302  eV     1   --> A'             
     e(  7 -  7) =      9.10100  eV     1   --> A'             
     e(  8 -  8) =      9.41448  eV     1   --> A'             

 **************************************************************************

 **************************************************************************

                    xk=(   0.42500,   0.42551,   0.00000  )

     Band symmetry, C_s (m)     point group:

     e(  1 -  1) =    -16.04923  eV     1   --> A'             
     e(  2 -  2) =    -14.46934  eV     1   --> A'             
     e(  3 -  3) =     -9.31672  eV     1   --> A'             
     e(  4 -  4) =     -3.98840  eV     1   --> A''            
     e(  5 -  5) =     -0.39030  eV     1   --> A''            
     e(  6 -  6) =      8.05589  eV     1   --> A'             
     e(  7 -  7) =      9.14484  eV     1   --> A'             
     e(  8 -  8) =      9.47106  eV     1   --> A'             

 **************************************************************************

 **************************************************************************

                    xk=(   0.42083,   0.43311,   0.00000  )

     Band symmetry, C_s (m)     point group:

     e(  1 -  1) =    -16.00958  eV     1   --> A'             
     e(  2 -  2) =    -14.43275  eV     1   --> A'             
     e(  3 -  3) =     -9.46619  eV     1   --> A'             
     e(  4 -  4) =     -3.93362  eV     1   --> A''            
     e(  5 -  5) =     -0.41001  eV     1   --> A''            
     e(  6 -  6) =      8.26362  eV     1   --> A'             
     e(  7 -  7) =      9.19108  eV     1   --> A'             
     e(  8 -  8) =      9.53067  eV     1   --> A'             

 **************************************************************************

 **************************************************************************

                    xk=(   0.41667,   0.44071,   0.00000  )

     Band symmetry, C_s (m)     point group:

     e(  1 -  1) =    -15.96781  eV     1   --> A'             
     e(  2 -  2) =    -14.39468  eV     1   --> A'             
     e(  3 -  3) =     -9.61858  eV     1   --> A'             
     e(  4 -  4) =     -3.87593  eV     1   --> A''            
     e(  5 -  5) =     -0.43232  eV     1   --> A''            
     e(  6 -  6) =      8.47499  eV     1   --> A'             
     e(  7 -  7) =      9.23987  eV     1   --> A'             
     e(  8 -  8) =      9.54089  eV     1   --> A''            

 **************************************************************************

 **************************************************************************

                    xk=(   0.41250,   0.44831,   0.00000  )

     Band symmetry, C_s (m)     point group:

     e(  1 -  1) =    -15.92391  eV     1   --> A'             
     e(  2 -  2) =    -14.35525  eV     1   --> A'             
     e(  3 -  3) =     -9.77336  eV     1   --> A'             
     e(  4 -  4) =     -3.81534  eV     1   --> A''            
     e(  5 -  5) =     -0.45742  eV     1   --> A''            
     e(  6 -  6) =      8.68831  eV     1   --> A'             
     e(  7 -  7) =      9.29168  eV     1   --> A'             
     e(  8 -  8) =      9.49372  eV     1   --> A''            

 **************************************************************************

 **************************************************************************

                    xk=(   0.40833,   0.45591,   0.00000  )

     Band symmetry, C_s (m)     point group:

     e(  1 -  1) =    -15.87789  eV     1   --> A'             
     e(  2 -  2) =    -14.31460  eV     1   --> A'             
     e(  3 -  3) =     -9.93001  eV     1   --> A'             
     e(  4 -  4) =     -3.75186  eV     1   --> A''            
     e(  5 -  5) =     -0.48555  eV     1   --> A''            
     e(  6 -  6) =      8.90081  eV     1   --> A'             
     e(  7 -  7) =      9.34776  eV     1   --> A'             
     e(  8 -  8) =      9.44130  eV     1   --> A''            

 **************************************************************************

 **************************************************************************

                    xk=(   0.40417,   0.46352,   0.00000  )

     Band symmetry, C_s (m)     point group:

     e(  1 -  1) =    -15.82976  eV     1   --> A'             
     e(  2 -  2) =    -14.27293  eV     1   --> A'             
     e(  3 -  3) =    -10.08800  eV     1   --> A'             
     e(  4 -  4) =     -3.68550  eV     1   --> A''            
     e(  5 -  5) =     -0.51693  eV     1   --> A''            
     e(  6 -  6) =      9.10650  eV     1   --> A'             
     e(  7 -  7) =      9.38442  eV     1   --> A''            
     e(  8 -  8) =      9.41214  eV     1   --> A'             

 **************************************************************************

 **************************************************************************

                    xk=(   0.40000,   0.47112,   0.00000  )

     Band symmetry, C_s (m)     point group:

     e(  1 -  1) =    -15.77951  eV     1   --> A'             
     e(  2 -  2) =    -14.23043  eV     1   --> A'             
     e(  3 -  3) =    -10.24679  eV     1   --> A'             
     e(  4 -  4) =     -3.61628  eV     1   --> A''            
     e(  5 -  5) =     -0.55175  eV     1   --> A''            
     e(  6 -  6) =      9.28841  eV     1   --> A'             
     e(  7 -  7) =      9.32405  eV     1   --> A''            
     e(  8 -  8) =      9.49881  eV     1   --> A'             

 **************************************************************************

 **************************************************************************

                    xk=(   0.39583,   0.47872,   0.00000  )

     Band symmetry, C_s (m)     point group:

     e(  1 -  1) =    -15.72717  eV     1   --> A'             
     e(  2 -  2) =    -14.18737  eV     1   --> A'             
     e(  3 -  3) =    -10.40580  eV     1   --> A'             
     e(  4 -  4) =     -3.54420  eV     1   --> A''            
     e(  5 -  5) =     -0.59024  eV     1   --> A''            
     e(  6 -  6) =      9.26124  eV     1   --> A''            
     e(  7 -  7) =      9.41519  eV     1   --> A'             
     e(  8 -  8) =      9.63386  eV     1   --> A'             

 **************************************************************************

 **************************************************************************

                    xk=(   0.39167,   0.48632,   0.00000  )

     Band symmetry, C_s (m)     point group:

     e(  1 -  1) =    -15.67273  eV     1   --> A'             
     e(  2 -  2) =    -14.14407  eV     1   --> A'             
     e(  3 -  3) =    -10.56444  eV     1   --> A'             
     e(  4 -  4) =     -3.46928  eV     1   --> A''            
     e(  5 -  5) =     -0.63258  eV     1   --> A''            
     e(  6 -  6) =      9.19711  eV     1   --> A''            
     e(  7 -  7) =      9.49570  eV     1   --> A'             
     e(  8 -  8) =      9.79810  eV     1   --> A'             

 **************************************************************************

 **************************************************************************

                    xk=(   0.38750,   0.49392,   0.00000  )

     Band symmetry, C_s (m)     point group:

     e(  1 -  1) =    -15.61620  eV     1   --> A'             
     e(  2 -  2) =    -14.10092  eV     1   --> A'             
     e(  3 -  3) =    -10.72203  eV     1   --> A'             
     e(  4 -  4) =     -3.39154  eV     1   --> A''            
     e(  5 -  5) =     -0.67896  eV     1   --> A''            
     e(  6 -  6) =      9.13276  eV     1   --> A''            
     e(  7 -  7) =      9.55946  eV     1   --> A'             
     e(  8 -  8) =      9.94656  eV     1   --> A'             

 **************************************************************************

 **************************************************************************

                    xk=(   0.38333,   0.50152,   0.00000  )

     Band symmetry, C_s (m)     point group:

     e(  1 -  1) =    -15.55760  eV     1   --> A'             
     e(  2 -  2) =    -14.05842  eV     1   --> A'             
     e(  3 -  3) =    -10.87783  eV     1   --> A'             
     e(  4 -  4) =     -3.31100  eV     1   --> A''            
     e(  5 -  5) =     -0.72953  eV     1   --> A''            
     e(  6 -  6) =      9.06928  eV     1   --> A''            
     e(  7 -  7) =      9.61702  eV     1   --> A'             
     e(  8 -  8) =     10.06465  eV     1   --> A'             

 **************************************************************************

 **************************************************************************

                    xk=(   0.37917,   0.50913,   0.00000  )

     Band symmetry, C_s (m)     point group:

     e(  1 -  1) =    -15.49694  eV     1   --> A'             
     e(  2 -  2) =    -14.01718  eV     1   --> A'             
     e(  3 -  3) =    -11.03101  eV     1   --> A'             
     e(  4 -  4) =     -3.22767  eV     1   --> A''            
     e(  5 -  5) =     -0.78445  eV     1   --> A''            
     e(  6 -  6) =      9.00764  eV     1   --> A''            
     e(  7 -  7) =      9.67111  eV     1   --> A'             
     e(  8 -  8) =     10.16284  eV     1   --> A'             

 **************************************************************************

 **************************************************************************

                    xk=(   0.37500,   0.51673,   0.00000  )

     Band symmetry, C_s (m)     point group:

     e(  1 -  1) =    -15.43424  eV     1   --> A'             
     e(  2 -  2) =    -13.97797  eV     1   --> A'             
     e(  3 -  3) =    -11.18055  eV     1   --> A'             
     e(  4 -  4) =     -3.14158  eV     1   --> A''            
     e(  5 -  5) =     -0.84383  eV     1   --> A''            
     e(  6 -  6) =      8.94875  eV     1   --> A''            
     e(  7 -  7) =      9.72232  eV     1   --> A'             
     e(  8 -  8) =     10.25157  eV     1   --> A'             

 **************************************************************************

 **************************************************************************

                    xk=(   0.37083,   0.52433,   0.00000  )

     Band symmetry, C_s (m)     point group:

     e(  1 -  1) =    -15.36952  eV     1   --> A'             
     e(  2 -  2) =    -13.94177  eV     1   --> A'             
     e(  3 -  3) =    -11.32529  eV     1   --> A'             
     e(  4 -  4) =     -3.05276  eV     1   --> A''            
     e(  5 -  5) =     -0.90775  eV     1   --> A''            
     e(  6 -  6) =      8.89342  eV     1   --> A''            
     e(  7 -  7) =      9.77051  eV     1   --> A'             
     e(  8 -  8) =     10.33550  eV     1   --> A'             

 **************************************************************************

 **************************************************************************

                    xk=(   0.36667,   0.53193,   0.00000  )

     Band symmetry, C_s (m)     point group:

     e(  1 -  1) =    -15.30281  eV     1   --> A'             
     e(  2 -  2) =    -13.90980  eV     1   --> A'             
     e(  3 -  3) =    -11.46380  eV     1   --> A'             
     e(  4 -  4) =     -2.96125  eV     1   --> A''            
     e(  5 -  5) =     -0.97627  eV     1   --> A''            
     e(  6 -  6) =      8.84233  eV     1   --> A''            
     e(  7 -  7) =      9.81524  eV     1   --> A'             
     e(  8 -  8) =     10.41628  eV     1   --> A'             

 **************************************************************************

 **************************************************************************

                    xk=(   0.36250,   0.53953,   0.00000  )

     Band symmetry, C_s (m)     point group:

     e(  1 -  1) =    -15.23416  eV     1   --> A'             
     e(  2 -  2) =    -13.88354  eV     1   --> A'             
     e(  3 -  3) =    -11.59440  eV     1   --> A'             
     e(  4 -  4) =     -2.86709  eV     1   --> A''            
     e(  5 -  5) =     -1.04939  eV     1   --> A''            
     e(  6 -  6) =      8.79606  eV     1   --> A''            
     e(  7 -  7) =      9.85590  eV     1   --> A'             
     e(  8 -  8) =     10.49428  eV     1   --> A'             

 **************************************************************************

 **************************************************************************

                    xk=(   0.35833,   0.54714,   0.00000  )

     Band symmetry, C_s (m)     point group:

     e(  1 -  1) =    -15.16362  eV     1   --> A'             
     e(  2 -  2) =    -13.86479  eV     1   --> A'             
     e(  3 -  3) =    -11.71509  eV     1   --> A'             
     e(  4 -  4) =     -2.77035  eV     1   --> A''            
     e(  5 -  5) =     -1.12708  eV     1   --> A''            
     e(  6 -  6) =      8.75510  eV     1   --> A''            
     e(  7 -  7) =      9.89183  eV     1   --> A'             
     e(  8 -  8) =     10.56922  eV     1   --> A'             

 **************************************************************************

 **************************************************************************

                    xk=(   0.35417,   0.55474,   0.00000  )

     Band symmetry, C_s (m)     point group:

     e(  1 -  1) =    -15.09128  eV     1   --> A'             
     e(  2 -  2) =    -13.85559  eV     1   --> A'             
     e(  3 -  3) =    -11.82360  eV     1   --> A'             
     e(  4 -  4) =     -2.67111  eV     1   --> A''            
     e(  5 -  5) =     -1.20925  eV     1   --> A''            
     e(  6 -  6) =      8.71980  eV     1   --> A''            
     e(  7 -  7) =      9.92234  eV     1   --> A'             
     e(  8 -  8) =     10.64043  eV     1   --> A'             

 **************************************************************************

 **************************************************************************

                    xk=(   0.35000,   0.56234,   0.00000  )

     Band symmetry, C_s (m)     point group:

     e(  1 -  1) =    -15.01725  eV     1   --> A'             
     e(  2 -  2) =    -13.85813  eV     1   --> A'             
     e(  3 -  3) =    -11.91754  eV     1   --> A'             
     e(  4 -  4) =     -2.56952  eV     1   --> A''            
     e(  5 -  5) =     -1.29573  eV     1   --> A''            
     e(  6 -  6) =      8.69043  eV     1   --> A''            
     e(  7 -  7) =      9.94678  eV     1   --> A'             
     e(  8 -  8) =     10.70691  eV     1   --> A'             

 **************************************************************************

 **************************************************************************

                    xk=(   0.34583,   0.56994,   0.00000  )

     Band symmetry, C_s (m)     point group:

     e(  1 -  1) =    -14.94174  eV     1   --> A'             
     e(  2 -  2) =    -13.87439  eV     1   --> A'             
     e(  3 -  3) =    -11.99460  eV     1   --> A'             
     e(  4 -  4) =     -2.46582  eV     1   --> A''            
     e(  5 -  5) =     -1.38620  eV     1   --> A''            
     e(  6 -  6) =      8.66716  eV     1   --> A''            
     e(  7 -  7) =      9.96459  eV     1   --> A'             
     e(  8 -  8) =     10.76736  eV     1   --> A'             

 **************************************************************************

 **************************************************************************

                    xk=(   0.34167,   0.57754,   0.00000  )

     Band symmetry, C_s (m)     point group:

     e(  1 -  1) =    -14.86508  eV     1   --> A'             
     e(  2 -  2) =    -13.90578  eV     1   --> A'             
     e(  3 -  3) =    -12.05294  eV     1   --> A'             
     e(  4 -  4) =     -2.36047  eV     1   --> A''            
     e(  5 -  5) =     -1.48011  eV     1   --> A''            
     e(  6 -  6) =      8.65005  eV     1   --> A''            
     e(  7 -  7) =      9.97534  eV     1   --> A'             
     e(  8 -  8) =     10.82010  eV     1   --> A'             

 **************************************************************************

 **************************************************************************

                    xk=(   0.33750,   0.58514,   0.00000  )

     Band symmetry, C_s (m)     point group:

     e(  1 -  1) =    -14.78786  eV     1   --> A'             
     e(  2 -  2) =    -13.95258  eV     1   --> A'             
     e(  3 -  3) =    -12.09160  eV     1   --> A'             
     e(  4 -  4) =     -2.25450  eV     1   --> A''            
     e(  5 -  5) =     -1.57632  eV     1   --> A''            
     e(  6 -  6) =      8.63908  eV     1   --> A''            
     e(  7 -  7) =      9.97872  eV     1   --> A'             
     e(  8 -  8) =     10.86300  eV     1   --> A'             

 **************************************************************************

 **************************************************************************

                    xk=(   0.33333,   0.59275,   0.00000  )

     Band symmetry, C_s (m)     point group:

     e(  1 -  1) =    -14.71130  eV     1   --> A'             
     e(  2 -  2) =    -14.01343  eV     1   --> A'             
     e(  3 -  3) =    -12.11066  eV     1   --> A'             
     e(  4 -  4) =     -2.15075  eV     1   --> A''            
     e(  5 -  5) =     -1.67185  eV     1   --> A''            
     e(  6 -  6) =      8.63412  eV     1   --> A''            
     e(  7 -  7) =      9.97464  eV     1   --> A'             
     e(  8 -  8) =     10.89307  eV     1   --> A'             

 **************************************************************************

 **************************************************************************

                    xk=(   0.32500,   0.57793,   0.00000  )

     Band symmetry, C_s (m)     point group:

     e(  1 -  1) =    -14.76311  eV     1   --> A'             
     e(  2 -  2) =    -13.98271  eV     1   --> A'             
     e(  3 -  3) =    -12.07995  eV     1   --> A'             
     e(  4 -  4) =     -2.24466  eV     1   --> A''            
     e(  5 -  5) =     -1.58079  eV     1   --> A''            
     e(  6 -  6) =      8.64471  eV     1   --> A''            
     e(  7 -  7) =      9.94316  eV     1   --> A'             
     e(  8 -  8) =     10.73834  eV     1   --> A'             

 **************************************************************************

 **************************************************************************

                    xk=(   0.31667,   0.56311,   0.00000  )

     Band symmetry, C_s (m)     point group:

     e(  1 -  1) =    -14.90475  eV     1   --> A'             
     e(  2 -  2) =    -13.89077  eV     1   --> A'             
     e(  3 -  3) =    -12.00099  eV     1   --> A'             
     e(  4 -  4) =     -2.44032  eV     1   --> A''            
     e(  5 -  5) =     -1.39008  eV     1   --> A''            
     e(  6 -  6) =      8.67083  eV     1   --> A''            
     e(  7 -  7) =      9.87211  eV     1   --> A'             
     e(  8 -  8) =     10.47316  eV     1   --> A'             

 **************************************************************************

 **************************************************************************

                    xk=(   0.30833,   0.54829,   0.00000  )

     Band symmetry, C_s (m)     point group:

     e(  1 -  1) =    -15.10596  eV     1   --> A'             
     e(  2 -  2) =    -13.75586  eV     1   --> A'             
     e(  3 -  3) =    -11.88547  eV     1   --> A'             
     e(  4 -  4) =     -2.67178  eV     1   --> A''            
     e(  5 -  5) =     -1.16410  eV     1   --> A''            
     e(  6 -  6) =      8.70581  eV     1   --> A''            
     e(  7 -  7) =      9.74288  eV     1   --> A'             
     e(  8 -  8) =     10.17150  eV     1   --> A'             

 **************************************************************************

 **************************************************************************

                    xk=(   0.30000,   0.53347,   0.00000  )

     Band symmetry, C_s (m)     point group:

     e(  1 -  1) =    -15.34038  eV     1   --> A'             
     e(  2 -  2) =    -13.59491  eV     1   --> A'             
     e(  3 -  3) =    -11.74256  eV     1   --> A'             
     e(  4 -  4) =     -2.92042  eV     1   --> A''            
     e(  5 -  5) =     -0.91982  eV     1   --> A''            
     e(  6 -  6) =      8.73913  eV     1   --> A''            
     e(  7 -  7) =      9.50824  eV     1   --> A'             
     e(  8 -  8) =      9.92041  eV     1   --> A'             

 **************************************************************************

 **************************************************************************

                    xk=(   0.29167,   0.51865,   0.00000  )

     Band symmetry, C_s (m)     point group:

     e(  1 -  1) =    -15.59262  eV     1   --> A'             
     e(  2 -  2) =    -13.41668  eV     1   --> A'             
     e(  3 -  3) =    -11.57876  eV     1   --> A'             
     e(  4 -  4) =     -3.17953  eV     1   --> A''            
     e(  5 -  5) =     -0.66240  eV     1   --> A''            
     e(  6 -  6) =      8.75446  eV     1   --> A''            
     e(  7 -  7) =      9.16896  eV     1   --> A'             
     e(  8 -  8) =      9.74219  eV     1   --> A'             

 **************************************************************************

 **************************************************************************

                    xk=(   0.28333,   0.50383,   0.00000  )

     Band symmetry, C_s (m)     point group:

     e(  1 -  1) =    -15.85392  eV     1   --> A'             
     e(  2 -  2) =    -13.22540  eV     1   --> A'             
     e(  3 -  3) =    -11.39855  eV     1   --> A'             
     e(  4 -  4) =     -3.44550  eV     1   --> A''            
     e(  5 -  5) =     -0.39393  eV     1   --> A''            
     e(  6 -  6) =      8.72832  eV     1   --> A''            
     e(  7 -  7) =      8.78696  eV     1   --> A'             
     e(  8 -  8) =      9.58814  eV     1   --> A'             

 **************************************************************************

 **************************************************************************

                    xk=(   0.27500,   0.48902,   0.00000  )

     Band symmetry, C_s (m)     point group:

     e(  1 -  1) =    -16.11898  eV     1   --> A'             
     e(  2 -  2) =    -13.02327  eV     1   --> A'             
     e(  3 -  3) =    -11.20504  eV     1   --> A'             
     e(  4 -  4) =     -3.71584  eV     1   --> A''            
     e(  5 -  5) =     -0.11555  eV     1   --> A''            
     e(  6 -  6) =      8.39396  eV     1   --> A'             
     e(  7 -  7) =      8.63472  eV     1   --> A''            
     e(  8 -  8) =      9.43349  eV     1   --> A'             

 **************************************************************************

 **************************************************************************

                    xk=(   0.26667,   0.47420,   0.00000  )

     Band symmetry, C_s (m)     point group:

     e(  1 -  1) =    -16.38443  eV     1   --> A'             
     e(  2 -  2) =    -12.81155  eV     1   --> A'             
     e(  3 -  3) =    -11.00048  eV     1   --> A'             
     e(  4 -  4) =     -3.98857  eV     1   --> A''            
     e(  5 -  5) =      0.17202  eV     1   --> A''            
     e(  6 -  6) =      8.00135  eV     1   --> A'             
     e(  7 -  7) =      8.46072  eV     1   --> A''            
     e(  8 -  8) =      9.26383  eV     1   --> A'             

 **************************************************************************

 **************************************************************************

                    xk=(   0.25833,   0.45938,   0.00000  )

     Band symmetry, C_s (m)     point group:

     e(  1 -  1) =    -16.64799  eV     1   --> A'             
     e(  2 -  2) =    -12.59101  eV     1   --> A'             
     e(  3 -  3) =    -10.78654  eV     1   --> A'             
     e(  4 -  4) =     -4.26202  eV     1   --> A''            
     e(  5 -  5) =      0.46817  eV     1   --> A''            
     e(  6 -  6) =      7.61405  eV     1   --> A'             
     e(  7 -  7) =      8.21769  eV     1   --> A''            
     e(  8 -  8) =      9.00151  eV     1   --> A'             

 **************************************************************************

 **************************************************************************

                    xk=(   0.25000,   0.44456,   0.00000  )

     Band symmetry, C_s (m)     point group:

     e(  1 -  1) =    -16.90805  eV     1   --> A'             
     e(  2 -  2) =    -12.36221  eV     1   --> A'             
     e(  3 -  3) =    -10.56454  eV     1   --> A'             
     e(  4 -  4) =     -4.53476  eV     1   --> A''            
     e(  5 -  5) =      0.77238  eV     1   --> A''            
     e(  6 -  6) =      7.23461  eV     1   --> A'             
     e(  7 -  7) =      7.92982  eV     1   --> A''            
     e(  8 -  8) =      8.62766  eV     1   --> A'             

 **************************************************************************

 **************************************************************************

                    xk=(   0.24167,   0.42974,   0.00000  )

     Band symmetry, C_s (m)     point group:

     e(  1 -  1) =    -17.16346  eV     1   --> A'             
     e(  2 -  2) =    -12.12557  eV     1   --> A'             
     e(  3 -  3) =    -10.33557  eV     1   --> A'             
     e(  4 -  4) =     -4.80552  eV     1   --> A''            
     e(  5 -  5) =      1.08414  eV     1   --> A''            
     e(  6 -  6) =      6.86454  eV     1   --> A'             
     e(  7 -  7) =      7.61835  eV     1   --> A''            
     e(  8 -  8) =      8.24783  eV     1   --> A'             

 **************************************************************************

 **************************************************************************

                    xk=(   0.23333,   0.41492,   0.00000  )

     Band symmetry, C_s (m)     point group:

     e(  1 -  1) =    -17.41333  eV     1   --> A'             
     e(  2 -  2) =    -11.88144  eV     1   --> A'             
     e(  3 -  3) =    -10.10058  eV     1   --> A'             
     e(  4 -  4) =     -5.07320  eV     1   --> A''            
     e(  5 -  5) =      1.40292  eV     1   --> A''            
     e(  6 -  6) =      6.50480  eV     1   --> A'             
     e(  7 -  7) =      7.29716  eV     1   --> A''            
     e(  8 -  8) =      7.87725  eV     1   --> A'             

 **************************************************************************

 **************************************************************************

                    xk=(   0.22500,   0.40010,   0.00000  )

     Band symmetry, C_s (m)     point group:

     e(  1 -  1) =    -17.65700  eV     1   --> A'             
     e(  2 -  2) =    -11.63015  eV     1   --> A'             
     e(  3 -  3) =     -9.86043  eV     1   --> A'             
     e(  4 -  4) =     -5.33682  eV     1   --> A''            
     e(  5 -  5) =      1.72816  eV     1   --> A''            
     e(  6 -  6) =      6.15602  eV     1   --> A'             
     e(  7 -  7) =      6.97454  eV     1   --> A''            
     e(  8 -  8) =      7.51825  eV     1   --> A'             

 **************************************************************************

 **************************************************************************

                    xk=(   0.21667,   0.38528,   0.00000  )

     Band symmetry, C_s (m)     point group:

     e(  1 -  1) =    -17.89393  eV     1   --> A'             
     e(  2 -  2) =    -11.37201  eV     1   --> A'             
     e(  3 -  3) =     -9.61593  eV     1   --> A'             
     e(  4 -  4) =     -5.59549  eV     1   --> A''            
     e(  5 -  5) =      2.05924  eV     1   --> A''            
     e(  6 -  6) =      5.81865  eV     1   --> A'             
     e(  7 -  7) =      6.65542  eV     1   --> A''            
     e(  8 -  8) =      7.17156  eV     1   --> A'             

 **************************************************************************

 **************************************************************************

                    xk=(   0.20833,   0.37047,   0.00000  )

     Band symmetry, C_s (m)     point group:

     e(  1 -  1) =    -18.12368  eV     1   --> A'             
     e(  2 -  2) =    -11.10735  eV     1   --> A'             
     e(  3 -  3) =     -9.36788  eV     1   --> A'             
     e(  4 -  4) =     -5.84847  eV     1   --> A''            
     e(  5 -  5) =      2.39552  eV     1   --> A''            
     e(  6 -  6) =      5.49304  eV     1   --> A'             
     e(  7 -  7) =      6.34284  eV     1   --> A''            
     e(  8 -  8) =      6.83748  eV     1   --> A'             

 **************************************************************************

 **************************************************************************

                    xk=(   0.20000,   0.35565,   0.00000  )

     Band symmetry, C_s (m)     point group:

     e(  1 -  1) =    -18.34592  eV     1   --> A'             
     e(  2 -  2) =    -10.83652  eV     1   --> A'             
     e(  3 -  3) =     -9.11707  eV     1   --> A'             
     e(  4 -  4) =     -6.09507  eV     1   --> A''            
     e(  5 -  5) =      2.73624  eV     1   --> A''            
     e(  6 -  6) =      5.17943  eV     1   --> A'             
     e(  7 -  7) =      6.03872  eV     1   --> A''            
     e(  8 -  8) =      6.51618  eV     1   --> A'             

 **************************************************************************

 **************************************************************************

                    xk=(   0.19167,   0.34083,   0.00000  )

     Band symmetry, C_s (m)     point group:

     e(  1 -  1) =    -18.56036  eV     1   --> A'             
     e(  2 -  2) =    -10.55989  eV     1   --> A'             
     e(  3 -  3) =     -8.86431  eV     1   --> A'             
     e(  4 -  4) =     -6.33469  eV     1   --> A''            
     e(  5 -  5) =      3.08058  eV     1   --> A''            
     e(  6 -  6) =      4.87800  eV     1   --> A'             
     e(  7 -  7) =      5.74438  eV     1   --> A''            
     e(  8 -  8) =      6.20777  eV     1   --> A'             

 **************************************************************************

 **************************************************************************

                    xk=(   0.18333,   0.32601,   0.00000  )

     Band symmetry, C_s (m)     point group:

     e(  1 -  1) =    -18.76674  eV     1   --> A'             
     e(  2 -  2) =    -10.27790  eV     1   --> A'             
     e(  3 -  3) =     -8.61042  eV     1   --> A'             
     e(  4 -  4) =     -6.56680  eV     1   --> A''            
     e(  5 -  5) =      3.42757  eV     1   --> A''            
     e(  6 -  6) =      4.58891  eV     1   --> A'             
     e(  7 -  7) =      5.46078  eV     1   --> A''            
     e(  8 -  8) =      5.91231  eV     1   --> A'             

 **************************************************************************

 **************************************************************************

                    xk=(   0.17500,   0.31119,   0.00000  )

     Band symmetry, C_s (m)     point group:

     e(  1 -  1) =    -18.96486  eV     1   --> A'             
     e(  2 -  2) =     -9.99102  eV     1   --> A'             
     e(  3 -  3) =     -8.35628  eV     1   --> A'             
     e(  4 -  4) =     -6.79093  eV     1   --> A''            
     e(  5 -  5) =      3.77594  eV     1   --> A''            
     e(  6 -  6) =      4.31227  eV     1   --> A'             
     e(  7 -  7) =      5.18883  eV     1   --> A''            
     e(  8 -  8) =      5.62985  eV     1   --> A'             

 **************************************************************************

 **************************************************************************

                    xk=(   0.16667,   0.29637,   0.00000  )

     Band symmetry, C_s (m)     point group:

     e(  1 -  1) =    -19.15455  eV     1   --> A'             
     e(  2 -  2) =     -9.69979  eV     1   --> A'             
     e(  3 -  3) =     -8.10278  eV     1   --> A'             
     e(  4 -  4) =     -7.00665  eV     1   --> A''            
     e(  5 -  5) =      4.04818  eV     1   --> A'             
     e(  6 -  6) =      4.12344  eV     1   --> A''            
     e(  7 -  7) =      4.93016  eV     1   --> A''            
     e(  8 -  8) =      5.36044  eV     1   --> A'             

 **************************************************************************

 **************************************************************************

                    xk=(   0.15833,   0.28155,   0.00000  )

     Band symmetry, C_s (m)     point group:

     e(  1 -  1) =    -19.33566  eV     1   --> A'             
     e(  2 -  2) =     -9.40483  eV     1   --> A'             
     e(  3 -  3) =     -7.85087  eV     1   --> A'             
     e(  4 -  4) =     -7.21360  eV     1   --> A''            
     e(  5 -  5) =      3.79671  eV     1   --> A'             
     e(  6 -  6) =      4.45552  eV     1   --> A''            
     e(  7 -  7) =      4.69847  eV     1   --> A''            
     e(  8 -  8) =      5.10409  eV     1   --> A'             

 **************************************************************************

 **************************************************************************

                    xk=(   0.15000,   0.26674,   0.00000  )

     Band symmetry, C_s (m)     point group:

     e(  1 -  1) =    -19.50805  eV     1   --> A'             
     e(  2 -  2) =     -9.10685  eV     1   --> A'             
     e(  3 -  3) =     -7.60154  eV     1   --> A'             
     e(  4 -  4) =     -7.41145  eV     1   --> A''            
     e(  5 -  5) =      3.55793  eV     1   --> A'             
     e(  6 -  6) =      4.42276  eV     1   --> A''            
     e(  7 -  7) =      4.84205  eV     1   --> A''            
     e(  8 -  8) =      4.86083  eV     1   --> A'             

 **************************************************************************

 **************************************************************************

                    xk=(   0.14167,   0.25192,   0.00000  )

     Band symmetry, C_s (m)     point group:

     e(  1 -  1) =    -19.67161  eV     1   --> A'             
     e(  2 -  2) =     -8.80668  eV     1   --> A'             
     e(  3 -  3) =     -7.59991  eV     1   --> A''            
     e(  4 -  4) =     -7.35583  eV     1   --> A'             
     e(  5 -  5) =      3.33189  eV     1   --> A'             
     e(  6 -  6) =      4.20518  eV     1   --> A''            
     e(  7 -  7) =      4.63067  eV     1   --> A'             
     e(  8 -  8) =      5.17944  eV     1   --> A''            

 **************************************************************************

 **************************************************************************

                    xk=(   0.13333,   0.23710,   0.00000  )

     Band symmetry, C_s (m)     point group:

     e(  1 -  1) =    -19.82624  eV     1   --> A'             
     e(  2 -  2) =     -8.50528  eV     1   --> A'             
     e(  3 -  3) =     -7.77870  eV     1   --> A''            
     e(  4 -  4) =     -7.11481  eV     1   --> A'             
     e(  5 -  5) =      3.11863  eV     1   --> A'             
     e(  6 -  6) =      3.99432  eV     1   --> A''            
     e(  7 -  7) =      4.41364  eV     1   --> A'             
     e(  8 -  8) =      5.51666  eV     1   --> A''            

 **************************************************************************

 **************************************************************************

                    xk=(   0.12500,   0.22228,   0.00000  )

     Band symmetry, C_s (m)     point group:

     e(  1 -  1) =    -19.97185  eV     1   --> A'             
     e(  2 -  2) =     -8.20374  eV     1   --> A'             
     e(  3 -  3) =     -7.94761  eV     1   --> A''            
     e(  4 -  4) =     -6.87960  eV     1   --> A'             
     e(  5 -  5) =      2.91820  eV     1   --> A'             
     e(  6 -  6) =      3.79492  eV     1   --> A''            
     e(  7 -  7) =      4.20974  eV     1   --> A'             
     e(  8 -  8) =      5.83812  eV     1   --> A''            

 **************************************************************************

 **************************************************************************

                    xk=(   0.11667,   0.20746,   0.00000  )

     Band symmetry, C_s (m)     point group:

     e(  1 -  1) =    -20.10836  eV     1   --> A'             
     e(  2 -  2) =     -8.10643  eV     1   --> A''            
     e(  3 -  3) =     -7.90338  eV     1   --> A'             
     e(  4 -  4) =     -6.65134  eV     1   --> A'             
     e(  5 -  5) =      2.73061  eV     1   --> A'             
     e(  6 -  6) =      3.60778  eV     1   --> A''            
     e(  7 -  7) =      4.01898  eV     1   --> A'             
     e(  8 -  8) =      5.88693  eV     1   --> A''            

 **************************************************************************

 **************************************************************************

                    xk=(   0.10833,   0.19264,   0.00000  )

     Band symmetry, C_s (m)     point group:

     e(  1 -  1) =    -20.23571  eV     1   --> A'             
     e(  2 -  2) =     -8.25497  eV     1   --> A''            
     e(  3 -  3) =     -7.60570  eV     1   --> A'             
     e(  4 -  4) =     -6.43120  eV     1   --> A'             
     e(  5 -  5) =      2.55591  eV     1   --> A'             
     e(  6 -  6) =      3.43316  eV     1   --> A''            
     e(  7 -  7) =      3.84137  eV     1   --> A'             
     e(  8 -  8) =      5.72468  eV     1   --> A''            

 **************************************************************************

 **************************************************************************

                    xk=(   0.10000,   0.17782,   0.00000  )

     Band symmetry, C_s (m)     point group:

     e(  1 -  1) =    -20.35383  eV     1   --> A'             
     e(  2 -  2) =     -8.39307  eV     1   --> A''            
     e(  3 -  3) =     -7.31244  eV     1   --> A'             
     e(  4 -  4) =     -6.22033  eV     1   --> A'             
     e(  5 -  5) =      2.39410  eV     1   --> A'             
     e(  6 -  6) =      3.27123  eV     1   --> A''            
     e(  7 -  7) =      3.67692  eV     1   --> A'             
     e(  8 -  8) =      5.56685  eV     1   --> A''            

 **************************************************************************

 **************************************************************************

                    xk=(   0.09167,   0.16301,   0.00000  )

     Band symmetry, C_s (m)     point group:

     e(  1 -  1) =    -20.46267  eV     1   --> A'             
     e(  2 -  2) =     -8.52059  eV     1   --> A''            
     e(  3 -  3) =     -7.02568  eV     1   --> A'             
     e(  4 -  4) =     -6.01990  eV     1   --> A'             
     e(  5 -  5) =      2.24522  eV     1   --> A'             
     e(  6 -  6) =      3.12207  eV     1   --> A''            
     e(  7 -  7) =      3.52562  eV     1   --> A'             
     e(  8 -  8) =      5.42023  eV     1   --> A''            

 **************************************************************************

 **************************************************************************

                    xk=(   0.08333,   0.14819,   0.00000  )

     Band symmetry, C_s (m)     point group:

     e(  1 -  1) =    -20.56220  eV     1   --> A'             
     e(  2 -  2) =     -8.63741  eV     1   --> A''            
     e(  3 -  3) =     -6.74778  eV     1   --> A'             
     e(  4 -  4) =     -5.83101  eV     1   --> A'             
     e(  5 -  5) =      2.10926  eV     1   --> A'             
     e(  6 -  6) =      2.98575  eV     1   --> A''            
     e(  7 -  7) =      3.38749  eV     1   --> A'             
     e(  8 -  8) =      5.28579  eV     1   --> A''            

 **************************************************************************

 **************************************************************************

                    xk=(   0.07500,   0.13337,   0.00000  )

     Band symmetry, C_s (m)     point group:

     e(  1 -  1) =    -20.65235  eV     1   --> A'             
     e(  2 -  2) =     -8.74340  eV     1   --> A''            
     e(  3 -  3) =     -6.48151  eV     1   --> A'             
     e(  4 -  4) =     -5.65469  eV     1   --> A'             
     e(  5 -  5) =      1.98625  eV     1   --> A'             
     e(  6 -  6) =      2.86231  eV     1   --> A''            
     e(  7 -  7) =      3.26251  eV     1   --> A'             
     e(  8 -  8) =      5.16386  eV     1   --> A''            

 **************************************************************************

 **************************************************************************

                    xk=(   0.06667,   0.11855,   0.00000  )

     Band symmetry, C_s (m)     point group:

     e(  1 -  1) =    -20.73310  eV     1   --> A'             
     e(  2 -  2) =     -8.83848  eV     1   --> A''            
     e(  3 -  3) =     -6.23000  eV     1   --> A'             
     e(  4 -  4) =     -5.49190  eV     1   --> A'             
     e(  5 -  5) =      1.87619  eV     1   --> A'             
     e(  6 -  6) =      2.75178  eV     1   --> A''            
     e(  7 -  7) =      3.15071  eV     1   --> A'             
     e(  8 -  8) =      5.05458  eV     1   --> A''            

 **************************************************************************

 **************************************************************************

                    xk=(   0.05833,   0.10373,   0.00000  )

     Band symmetry, C_s (m)     point group:

     e(  1 -  1) =    -20.80443  eV     1   --> A'             
     e(  2 -  2) =     -8.92257  eV     1   --> A''            
     e(  3 -  3) =     -5.99681  eV     1   --> A'             
     e(  4 -  4) =     -5.34347  eV     1   --> A'             
     e(  5 -  5) =      1.77908  eV     1   --> A'             
     e(  6 -  6) =      2.65420  eV     1   --> A''            
     e(  7 -  7) =      3.05206  eV     1   --> A'             
     e(  8 -  8) =      4.95803  eV     1   --> A''            

 **************************************************************************

 **************************************************************************

                    xk=(   0.05000,   0.08891,   0.00000  )

     Band symmetry, C_s (m)     point group:

     e(  1 -  1) =    -20.86629  eV     1   --> A'             
     e(  2 -  2) =     -8.99558  eV     1   --> A''            
     e(  3 -  3) =     -5.78580  eV     1   --> A'             
     e(  4 -  4) =     -5.21015  eV     1   --> A'             
     e(  5 -  5) =      1.69493  eV     1   --> A'             
     e(  6 -  6) =      2.56960  eV     1   --> A''            
     e(  7 -  7) =      2.96658  eV     1   --> A'             
     e(  8 -  8) =      4.87427  eV     1   --> A''            

 **************************************************************************

 **************************************************************************

                    xk=(   0.04167,   0.07409,   0.00000  )

     Band symmetry, C_s (m)     point group:

     e(  1 -  1) =    -20.91867  eV     1   --> A'             
     e(  2 -  2) =     -9.05745  eV     1   --> A''            
     e(  3 -  3) =     -5.60095  eV     1   --> A'             
     e(  4 -  4) =     -5.09270  eV     1   --> A'             
     e(  5 -  5) =      1.62375  eV     1   --> A'             
     e(  6 -  6) =      2.49798  eV     1   --> A''            
     e(  7 -  7) =      2.89426  eV     1   --> A'             
     e(  8 -  8) =      4.80334  eV     1   --> A''            

 **************************************************************************

 **************************************************************************

                    xk=(   0.03333,   0.05927,   0.00000  )

     Band symmetry, C_s (m)     point group:

     e(  1 -  1) =    -20.96156  eV     1   --> A'             
     e(  2 -  2) =     -9.10814  eV     1   --> A''            
     e(  3 -  3) =     -5.44603  eV     1   --> A'             
     e(  4 -  4) =     -4.99207  eV     1   --> A'             
     e(  5 -  5) =      1.56551  eV     1   --> A'             
     e(  6 -  6) =      2.43936  eV     1   --> A''            
     e(  7 -  7) =      2.83510  eV     1   --> A'             
     e(  8 -  8) =      4.74528  eV     1   --> A''            

 **************************************************************************

 **************************************************************************

                    xk=(   0.02500,   0.04446,   0.00000  )

     Band symmetry, C_s (m)     point group:

     e(  1 -  1) =    -20.99493  eV     1   --> A'             
     e(  2 -  2) =     -9.14761  eV     1   --> A''            
     e(  3 -  3) =     -5.32400  eV     1   --> A'             
     e(  4 -  4) =     -4.90978  eV     1   --> A'             
     e(  5 -  5) =      1.52023  eV     1   --> A'             
     e(  6 -  6) =      2.39376  eV     1   --> A''            
     e(  7 -  7) =      2.78909  eV     1   --> A'             
     e(  8 -  8) =      4.70010  eV     1   --> A''            

 **************************************************************************

 **************************************************************************

                    xk=(   0.01667,   0.02964,   0.00000  )

     Band symmetry, C_s (m)     point group:

     e(  1 -  1) =    -21.01877  eV     1   --> A'             
     e(  2 -  2) =     -9.17583  eV     1   --> A''            
     e(  3 -  3) =     -5.23659  eV     1   --> A'             
     e(  4 -  4) =     -4.84804  eV     1   --> A'             
     e(  5 -  5) =      1.48788  eV     1   --> A'             
     e(  6 -  6) =      2.36118  eV     1   --> A''            
     e(  7 -  7) =      2.75623  eV     1   --> A'             
     e(  8 -  8) =      4.66781  eV     1   --> A''            

 **************************************************************************

 **************************************************************************

                    xk=(   0.00833,   0.01482,   0.00000  )

     Band symmetry, C_s (m)     point group:

     e(  1 -  1) =    -21.03308  eV     1   --> A'             
     e(  2 -  2) =     -9.19277  eV     1   --> A''            
     e(  3 -  3) =     -5.18430  eV     1   --> A'             
     e(  4 -  4) =     -4.80950  eV     1   --> A'             
     e(  5 -  5) =      1.46848  eV     1   --> A'             
     e(  6 -  6) =      2.34163  eV     1   --> A''            
     e(  7 -  7) =      2.73652  eV     1   --> A'             
     e(  8 -  8) =      4.64844  eV     1   --> A''            

 **************************************************************************

 **************************************************************************

                    xk=(   0.00000,   0.00000,   0.00000  )

     point group C_2h (2/m) 
     there are  4 classes
     the character table:

       E     C2    i     s_h  
A_g    1.00  1.00  1.00  1.00
B_g    1.00 -1.00  1.00 -1.00
A_u    1.00  1.00 -1.00 -1.00
B_u    1.00 -1.00 -1.00  1.00

     the symmetry operations in each class and the name of the first element:

     E        1
                                                                 
     C2       2
                                                                 
     i        3
                                                                 
     s_h      4
                                                                 

     Band symmetry, C_2h (2/m)  point group:

     e(  1 -  1) =    -21.03785  eV     1   --> A_g            
     e(  2 -  2) =     -9.19841  eV     1   --> A_u            
     e(  3 -  3) =     -5.16692  eV     1   --> A_g            
     e(  4 -  4) =     -4.79636  eV     1   --> A_g            
     e(  5 -  5) =      1.46202  eV     1   --> A_g            
     e(  6 -  6) =      2.33512  eV     1   --> A_u            
     e(  7 -  7) =      2.72994  eV     1   --> A_g            
     e(  8 -  8) =      4.64198  eV     1   --> A_u            

 **************************************************************************

     BANDS        :     38.54s CPU     57.70s WALL


   This run was terminated on:  12:44:58  12Apr2026            

=------------------------------------------------------------------------------=
   JOB DONE.
=------------------------------------------------------------------------------=
