
     Program PWSCF v.7.5 starts on 11Apr2026 at 12:54:11 

     This program is part of the open-source Quantum ESPRESSO suite
     for quantum simulation of materials; please cite
         "P. Giannozzi et al., J. Phys.:Condens. Matter 21 395502 (2009);
         "P. Giannozzi et al., J. Phys.:Condens. Matter 29 465901 (2017);
         "P. Giannozzi et al., J. Chem. Phys. 152 154105 (2020);
          URL http://www.quantum-espresso.org", 
     in publications or presentations arising from this work. More details at
     http://www.quantum-espresso.org/quote

     Parallel version (MPI), running on     1 processors

     MPI processes distributed on     1 nodes
     2376 MiB available memory on the printing compute node when the environment starts

     Waiting for input...
     Reading input from standard input

     Current dimensions of program PWSCF are:
     Max number of different atomic species (ntypx) = 10
     Max number of k-points (npk) =  40000
     Max angular momentum in pseudopotentials (lmaxx) =  4
     file C.pbe-n-kjpaw_psl.1.0.0.UPF: wavefunction(s)  2S 2P renormalized

     Subspace diagonalization in iterative solution of the eigenvalue problem:
     a serial algorithm will be used


     G-vector sticks info
     --------------------
     sticks:   dense  smooth     PW     G-vecs:    dense   smooth      PW
     Sum         955     475    151               142887    50421    8469

     Using Slab Decomposition



     bravais-lattice index     =            4
     lattice parameter (alat)  =       4.6500  a.u.
     unit-cell volume          =     522.4452 (a.u.)^3
     number of atoms/cell      =            2
     number of atomic types    =            1
     number of electrons       =         8.00
     number of Kohn-Sham states=            8
     kinetic-energy cutoff     =      80.0000  Ry
     charge density cutoff     =     640.0000  Ry
     scf convergence threshold =      1.0E-08
     mixing beta               =       0.7000
     number of iterations used =            8  plain     mixing
     Exchange-correlation= SLA  PW   PBX  PBC
                           (   1   4   3   4   0   0   0)

     celldm(1)=   4.650000  celldm(2)=   0.000000  celldm(3)=   6.000000
     celldm(4)=   0.000000  celldm(5)=   0.000000  celldm(6)=   0.000000

     crystal axes: (cart. coord. in units of alat)
               a(1) = (   1.000000   0.000000   0.000000 )  
               a(2) = (  -0.500000   0.866025   0.000000 )  
               a(3) = (   0.000000   0.000000   6.000000 )  

     reciprocal axes: (cart. coord. in units 2 pi/alat)
               b(1) = (  1.000000  0.577350 -0.000000 )  
               b(2) = (  0.000000  1.154701  0.000000 )  
               b(3) = (  0.000000 -0.000000  0.166667 )  


     PseudoPot. # 1 for C  read from file:
     ./pseudo/C.pbe-n-kjpaw_psl.1.0.0.UPF
     MD5 check sum: 5f16ad9a65e90284d1d834d4ab3b0f7d
     Pseudo is Projector augmented-wave + core cor, Zval =  4.0
     Generated using &quot;atomic&quot; code by A. Dal Corso  v.6.3
     Shape of augmentation charge: PSQ
     Using radial grid of 1073 points,  4 beta functions with: 
                l(1) =   0
                l(2) =   0
                l(3) =   1
                l(4) =   1
     Q(r) pseudized with 0 coefficients 


     atomic species   valence    mass     pseudopotential
     C                 4.00    12.01100     C ( 1.00)

     24 Sym. Ops., with inversion, found (12 have fractional translation)



   Cartesian axes

     site n.     atom                  positions (alat units)
         1        C      tau(   1) = (   0.0000000   0.0000000   0.0000000  )
         2        C      tau(   2) = (  -0.0000005   0.5773506   0.0000000  )

     number of k points=    61  Marzari-Vanderbilt smearing, width (Ry)=  0.0200
                       cart. coord. in units 2pi/alat
        k(    1) = (   0.0000000   0.0000000   0.0000000), wk =   0.0034722
        k(    2) = (   0.0000000   0.0481125   0.0000000), wk =   0.0208333
        k(    3) = (   0.0000000   0.0962250   0.0000000), wk =   0.0208333
        k(    4) = (   0.0000000   0.1443376   0.0000000), wk =   0.0208333
        k(    5) = (   0.0000000   0.1924501   0.0000000), wk =   0.0208333
        k(    6) = (   0.0000000   0.2405626   0.0000000), wk =   0.0208333
        k(    7) = (   0.0000000   0.2886751   0.0000000), wk =   0.0208333
        k(    8) = (   0.0000000   0.3367877   0.0000000), wk =   0.0208333
        k(    9) = (   0.0000000   0.3849002   0.0000000), wk =   0.0208333
        k(   10) = (   0.0000000   0.4330127   0.0000000), wk =   0.0208333
        k(   11) = (   0.0000000   0.4811252   0.0000000), wk =   0.0208333
        k(   12) = (   0.0000000   0.5292377   0.0000000), wk =   0.0208333
        k(   13) = (   0.0000000  -0.5773503   0.0000000), wk =   0.0104167
        k(   14) = (   0.0416667   0.0721688   0.0000000), wk =   0.0208333
        k(   15) = (   0.0416667   0.1202813   0.0000000), wk =   0.0416667
        k(   16) = (   0.0416667   0.1683938   0.0000000), wk =   0.0416667
        k(   17) = (   0.0416667   0.2165064   0.0000000), wk =   0.0416667
        k(   18) = (   0.0416667   0.2646189   0.0000000), wk =   0.0416667
        k(   19) = (   0.0416667   0.3127314   0.0000000), wk =   0.0416667
        k(   20) = (   0.0416667   0.3608439   0.0000000), wk =   0.0416667
        k(   21) = (   0.0416667   0.4089564   0.0000000), wk =   0.0416667
        k(   22) = (   0.0416667   0.4570690   0.0000000), wk =   0.0416667
        k(   23) = (   0.0416667   0.5051815   0.0000000), wk =   0.0416667
        k(   24) = (   0.0416667   0.5532940   0.0000000), wk =   0.0416667
        k(   25) = (   0.0833333   0.1443376   0.0000000), wk =   0.0208333
        k(   26) = (   0.0833333   0.1924501   0.0000000), wk =   0.0416667
        k(   27) = (   0.0833333   0.2405626   0.0000000), wk =   0.0416667
        k(   28) = (   0.0833333   0.2886751   0.0000000), wk =   0.0416667
        k(   29) = (   0.0833333   0.3367877   0.0000000), wk =   0.0416667
        k(   30) = (   0.0833333   0.3849002   0.0000000), wk =   0.0416667
        k(   31) = (   0.0833333   0.4330127   0.0000000), wk =   0.0416667
        k(   32) = (   0.0833333   0.4811252   0.0000000), wk =   0.0416667
        k(   33) = (   0.0833333   0.5292377   0.0000000), wk =   0.0416667
        k(   34) = (   0.0833333   0.5773503   0.0000000), wk =   0.0208333
        k(   35) = (   0.1250000   0.2165064   0.0000000), wk =   0.0208333
        k(   36) = (   0.1250000   0.2646189   0.0000000), wk =   0.0416667
        k(   37) = (   0.1250000   0.3127314   0.0000000), wk =   0.0416667
        k(   38) = (   0.1250000   0.3608439   0.0000000), wk =   0.0416667
        k(   39) = (   0.1250000   0.4089564   0.0000000), wk =   0.0416667
        k(   40) = (   0.1250000   0.4570690   0.0000000), wk =   0.0416667
        k(   41) = (   0.1250000   0.5051815   0.0000000), wk =   0.0416667
        k(   42) = (   0.1250000   0.5532940   0.0000000), wk =   0.0416667
        k(   43) = (   0.1666667   0.2886751   0.0000000), wk =   0.0208333
        k(   44) = (   0.1666667   0.3367877   0.0000000), wk =   0.0416667
        k(   45) = (   0.1666667   0.3849002   0.0000000), wk =   0.0416667
        k(   46) = (   0.1666667   0.4330127   0.0000000), wk =   0.0416667
        k(   47) = (   0.1666667   0.4811252   0.0000000), wk =   0.0416667
        k(   48) = (   0.1666667   0.5292377   0.0000000), wk =   0.0416667
        k(   49) = (   0.1666667   0.5773503   0.0000000), wk =   0.0208333
        k(   50) = (   0.2083333   0.3608439   0.0000000), wk =   0.0208333
        k(   51) = (   0.2083333   0.4089564   0.0000000), wk =   0.0416667
        k(   52) = (   0.2083333   0.4570690   0.0000000), wk =   0.0416667
        k(   53) = (   0.2083333   0.5051815   0.0000000), wk =   0.0416667
        k(   54) = (   0.2083333   0.5532940   0.0000000), wk =   0.0416667
        k(   55) = (   0.2500000   0.4330127   0.0000000), wk =   0.0208333
        k(   56) = (   0.2500000   0.4811252   0.0000000), wk =   0.0416667
        k(   57) = (   0.2500000   0.5292377   0.0000000), wk =   0.0416667
        k(   58) = (   0.2500000   0.5773503   0.0000000), wk =   0.0208333
        k(   59) = (   0.2916667   0.5051815   0.0000000), wk =   0.0208333
        k(   60) = (   0.2916667   0.5532940   0.0000000), wk =   0.0416667
        k(   61) = (   0.3333333   0.5773503   0.0000000), wk =   0.0069444

     Dense  grid:   142887 G-vectors     FFT dimensions: (  45,  45, 225)

     Smooth grid:    50421 G-vectors     FFT dimensions: (  27,  27, 160)

     Estimated max dynamical RAM per process >     238.01 MB

     Initial potential from superposition of free atoms

     starting charge       7.9999, renormalised to       8.0000

     negative rho (up, down):  2.070E-05 0.000E+00
     Starting wfcs are    8 randomized atomic wfcs
     Checking if some PAW data can be deallocated... 

     total cpu time spent up to now is        3.6 secs

     Self-consistent Calculation

     iteration #  1     ecut=    80.00 Ry     beta= 0.70
     Davidson diagonalization with overlap
     ethr =  1.00E-02,  avg # of iterations =  5.6

     negative rho (up, down):  1.880E-05 0.000E+00

     total cpu time spent up to now is       11.5 secs

     total energy              =     -36.86090274 Ry
     estimated scf accuracy    <       0.19501266 Ry

     iteration #  2     ecut=    80.00 Ry     beta= 0.70
     Davidson diagonalization with overlap
     ethr =  2.44E-03,  avg # of iterations =  3.7

     negative rho (up, down):  2.373E-05 0.000E+00

     total cpu time spent up to now is       18.8 secs

     total energy              =     -36.88763757 Ry
     estimated scf accuracy    <       0.00196303 Ry

     iteration #  3     ecut=    80.00 Ry     beta= 0.70
     Davidson diagonalization with overlap
     c_bands:  1 eigenvalues not converged
     c_bands:  1 eigenvalues not converged
     c_bands:  1 eigenvalues not converged
     ethr =  2.45E-05,  avg # of iterations = 10.8

     negative rho (up, down):  2.904E-05 0.000E+00

     total cpu time spent up to now is       29.4 secs

     total energy              =     -36.88794361 Ry
     estimated scf accuracy    <       0.00015445 Ry

     iteration #  4     ecut=    80.00 Ry     beta= 0.70
     Davidson diagonalization with overlap
     c_bands:  1 eigenvalues not converged
     ethr =  1.93E-06,  avg # of iterations =  4.4

     negative rho (up, down):  2.948E-05 0.000E+00

     total cpu time spent up to now is       35.5 secs

     total energy              =     -36.88795669 Ry
     estimated scf accuracy    <       0.00000219 Ry

     iteration #  5     ecut=    80.00 Ry     beta= 0.70
     Davidson diagonalization with overlap
     ethr =  2.73E-08,  avg # of iterations =  3.0

     negative rho (up, down):  2.949E-05 0.000E+00

     total cpu time spent up to now is       41.6 secs

     total energy              =     -36.88795785 Ry
     estimated scf accuracy    <       0.00000007 Ry

     iteration #  6     ecut=    80.00 Ry     beta= 0.70
     Davidson diagonalization with overlap
     ethr =  8.41E-10,  avg # of iterations =  2.8

     negative rho (up, down):  2.949E-05 0.000E+00

     total cpu time spent up to now is       47.3 secs

     End of self-consistent calculation

          k = 0.0000 0.0000 0.0000 (  6367 PWs)   bands (ev):

   -21.2335  -9.3195  -4.7047  -4.7046   1.5490   2.4449   2.8507   4.8353

          k = 0.0000 0.0481 0.0000 (  6387 PWs)   bands (ev):

   -21.1924  -9.2702  -4.8742  -4.7945   1.6050   2.5014   2.9076   4.8912

          k = 0.0000 0.0962 0.0000 (  6393 PWs)   bands (ev):

   -21.0690  -9.1225  -5.3572  -5.0455   1.7731   2.6708   3.0783   5.0592

          k = 0.0000 0.1443 0.0000 (  6371 PWs)   bands (ev):

   -20.8638  -8.8774  -6.0904  -5.4125   2.0533   2.9529   3.3628   5.3386

          k = 0.0000 0.1925 0.0000 (  6329 PWs)   bands (ev):

   -20.5772  -8.5367  -7.0005  -5.8435   2.4454   3.3469   3.7611   5.7281

          k = 0.0000 0.2406 0.0000 (  6333 PWs)   bands (ev):

   -20.2102  -8.1032  -8.0228  -6.2937   2.9491   3.8513   4.2731   6.2109

          k = 0.0000 0.2887 0.0000 (  6319 PWs)   bands (ev):

   -19.7640  -9.1068  -7.5814  -6.7291   3.5637   4.4552   4.8981   5.6476

          k = 0.0000 0.3368 0.0000 (  6310 PWs)   bands (ev):

   -19.2401 -10.2147  -7.1259  -6.9784   4.2880   4.4245   5.2549   5.6325

          k = 0.0000 0.3849 0.0000 (  6334 PWs)   bands (ev):

   -18.6412 -11.3187  -7.4673  -6.3068   3.2837   5.1173   6.0665   6.1219

          k = 0.0000 0.4330 0.0000 (  6300 PWs)   bands (ev):

   -17.9713 -12.3967  -7.7422  -5.5898   2.1571   5.9048   6.1576   7.0105

          k = 0.0000 0.4811 0.0000 (  6294 PWs)   bands (ev):

   -17.2395 -13.4277  -7.9432  -4.8766   1.1358   5.8754   7.1373   8.0617

          k = 0.0000 0.5292 0.0000 (  6280 PWs)   bands (ev):

   -16.4773 -14.3723  -8.0655  -4.2807   0.3492   5.8178   8.2832   9.2109

          k = 0.0000-0.5774 0.0000 (  6294 PWs)   bands (ev):

   -15.9648 -14.9461  -8.1065  -4.0270   0.0311   5.7976   9.4559   9.6022

          k = 0.0417 0.0722 0.0000 (  6395 PWs)   bands (ev):

   -21.1101  -9.1717  -5.1912  -4.9743   1.7170   2.6144   3.0214   5.0032

          k = 0.0417 0.1203 0.0000 (  6373 PWs)   bands (ev):

   -20.9458  -8.9753  -5.7782  -5.3047   1.9412   2.8401   3.2490   5.2269

          k = 0.0417 0.1684 0.0000 (  6353 PWs)   bands (ev):

   -20.6999  -8.6824  -6.5786  -5.7254   2.2774   3.1783   3.5905   5.5616

          k = 0.0417 0.2165 0.0000 (  6331 PWs)   bands (ev):

   -20.3732  -8.2951  -7.5280  -6.1834   2.7255   3.6279   4.0457   6.0036

          k = 0.0417 0.2646 0.0000 (  6322 PWs)   bands (ev):

   -19.9665  -8.5692  -7.8171  -6.6385   3.2848   4.1852   4.6146   6.1274

          k = 0.0417 0.3127 0.0000 (  6319 PWs)   bands (ev):

   -19.4814  -9.6570  -7.2540  -7.0629   3.9547   4.7610   5.1210   5.2957

          k = 0.0417 0.3608 0.0000 (  6310 PWs)   bands (ev):

   -18.9200 -10.7576  -7.4373  -6.6151   3.8336   4.7331   5.6759   6.0779

          k = 0.0417 0.4090 0.0000 (  6303 PWs)   bands (ev):

   -18.2853 -11.8454  -7.7489  -5.9170   2.6934   5.6102   6.2537   6.5620

          k = 0.0417 0.4571 0.0000 (  6290 PWs)   bands (ev):

   -17.5834 -12.8988  -7.9889  -5.1929   1.6143   6.0937   6.6541   7.5591

          k = 0.0417 0.5052 0.0000 (  6282 PWs)   bands (ev):

   -16.8296 -13.8921  -8.1517  -4.5168   0.6917   6.0287   7.7379   8.6571

          k = 0.0417 0.5533 0.0000 (  6275 PWs)   bands (ev):

   -16.1079 -14.7351  -8.2339  -4.0568   0.1057   5.9891   8.9309   9.8381

          k = 0.0833 0.1443 0.0000 (  6369 PWs)   bands (ev):

   -20.7409  -8.7310  -6.3940  -5.7278   2.2215   3.1220   3.5336   5.5062

          k = 0.0833 0.1925 0.0000 (  6338 PWs)   bands (ev):

   -20.4548  -8.3914  -7.1825  -6.2275   2.6138   3.5159   3.9321   5.8955

          k = 0.0833 0.2406 0.0000 (  6308 PWs)   bands (ev):

   -20.0884  -8.1097  -7.9592  -6.7321   3.1176   4.0203   4.4444   6.3620

          k = 0.0833 0.2887 0.0000 (  6314 PWs)   bands (ev):

   -19.6429  -9.1275  -7.4390  -7.2040   3.7325   4.6242   5.0700   5.4476

          k = 0.0833 0.3368 0.0000 (  6318 PWs)   bands (ev):

   -19.1202 -10.1909  -7.6235  -6.8378   4.3017   4.4574   5.3906   5.8083

          k = 0.0833 0.3849 0.0000 (  6300 PWs)   bands (ev):

   -18.5228 -11.2648  -7.9788  -6.1677   3.1851   5.2900   6.2175   6.6414

          k = 0.0833 0.4330 0.0000 (  6284 PWs)   bands (ev):

   -17.8550 -12.3224  -8.2619  -5.4512   2.0892   6.2167   6.7287   7.1573

          k = 0.0833 0.4811 0.0000 (  6299 PWs)   bands (ev):

   -17.1259 -13.3393  -8.4675  -4.7361   1.0885   6.5899   7.3062   8.1974

          k = 0.0833 0.5292 0.0000 (  6298 PWs)   bands (ev):

   -16.3677 -14.2738  -8.5921  -4.1345   0.3097   6.5377   8.4425   9.3207

          k = 0.0833 0.5774 0.0000 (  6282 PWs)   bands (ev):

   -15.8592 -14.8416  -8.6338  -3.8763  -0.0086   6.5178   9.6015   9.7575

          k = 0.1250 0.2165 0.0000 (  6321 PWs)   bands (ev):

   -20.1290  -8.0067  -7.8978  -6.8252   3.0619   3.9651   4.3877   6.6090

          k = 0.1250 0.2646 0.0000 (  6313 PWs)   bands (ev):

   -19.7238  -8.7382  -7.5319  -7.4106   3.6214   4.5236   4.9569   5.6678

          k = 0.1250 0.3127 0.0000 (  6312 PWs)   bands (ev):

   -19.2407  -9.6861  -7.9233  -6.9724   4.2915   4.6338   5.2077   5.6395

          k = 0.1250 0.3608 0.0000 (  6302 PWs)   bands (ev):

   -18.6819 -10.6965  -8.3504  -6.3371   3.5765   5.0709   5.9795   6.4346

          k = 0.1250 0.4090 0.0000 (  6300 PWs)   bands (ev):

   -18.0508 -11.7260  -8.6921  -5.6416   2.5080   5.9570   6.8608   7.3293

          k = 0.1250 0.4571 0.0000 (  6304 PWs)   bands (ev):

   -17.3537 -12.7410  -8.9491  -4.9168   1.4841   6.9383   7.4863   7.8385

          k = 0.1250 0.5052 0.0000 (  6305 PWs)   bands (ev):

   -16.6066 -13.7083  -9.1209  -4.2329   0.5914   7.3731   8.0666   8.8914

          k = 0.1250 0.5533 0.0000 (  6294 PWs)   bands (ev):

   -15.8937 -14.5335  -9.2070  -3.7590   0.0102   7.3394   9.2397   9.9314

          k = 0.1667 0.2887 0.0000 (  6321 PWs)   bands (ev):

   -19.2809  -9.4430  -8.1027  -7.0175   4.2361   4.7633   5.1365   5.5831

          k = 0.1667 0.3368 0.0000 (  6317 PWs)   bands (ev):

   -18.7617 -10.2608  -8.7004  -6.4225   3.7997   4.9606   5.8555   6.3224

          k = 0.1667 0.3849 0.0000 (  6319 PWs)   bands (ev):

   -18.1690 -11.1772  -9.1639  -5.7581   2.8041   5.7932   6.6763   7.1741

          k = 0.1667 0.4330 0.0000 (  6315 PWs)   bands (ev):

   -17.5076 -12.1393  -9.5056  -5.0443   1.8120   6.7307   7.5878   8.1324

          k = 0.1667 0.4811 0.0000 (  6299 PWs)   bands (ev):

   -16.7873 -13.0971  -9.7417  -4.3238   0.8804   7.7635   8.4540   8.5604

          k = 0.1667 0.5292 0.0000 (  6296 PWs)   bands (ev):

   -16.0408 -13.9940  -9.8810  -3.7022   0.1268   8.3641   8.9236   9.4921

          k = 0.1667 0.5774 0.0000 (  6324 PWs)   bands (ev):

   -15.5427 -14.5434  -9.9271  -3.4258  -0.1944   8.3511   9.9738  10.0239

          k = 0.2083 0.3608 0.0000 (  6327 PWs)   bands (ev):

   -18.2085 -10.9020  -9.4175  -5.7973   2.9124   5.7382   6.6131   7.1182

          k = 0.2083 0.4090 0.0000 (  6333 PWs)   bands (ev):

   -17.5851 -11.6609  -9.9715  -5.1101   2.0011   6.6217   7.4567   8.0256

          k = 0.2083 0.4571 0.0000 (  6321 PWs)   bands (ev):

   -16.8985 -12.5155 -10.3447  -4.3863   1.0991   7.6062   8.3449   9.0406

          k = 0.2083 0.5052 0.0000 (  6307 PWs)   bands (ev):

   -16.1654 -13.3925 -10.5722  -3.6848   0.2728   8.6788   9.1442   9.5429

          k = 0.2083 0.5533 0.0000 (  6292 PWs)   bands (ev):

   -15.4686 -14.1696 -10.6806  -3.1705  -0.3059   9.4653   9.5716   9.8544

          k = 0.2500 0.4330 0.0000 (  6321 PWs)   bands (ev):

   -16.9359 -12.2130 -10.6571  -4.4084   1.1811   7.5518   8.2688   8.9877

          k = 0.2500 0.4811 0.0000 (  6309 PWs)   bands (ev):

   -16.2323 -12.8915 -11.1213  -3.6831   0.3715   8.5739   8.9464  10.0544

          k = 0.2500 0.5292 0.0000 (  6303 PWs)   bands (ev):

   -15.5064 -13.6423 -11.3670  -3.0151  -0.3475   9.2354   9.6614  10.6181

          k = 0.2500 0.5774 0.0000 (  6288 PWs)   bands (ev):

   -15.0164 -14.1481 -11.4425  -2.6810  -0.6988   9.2766  10.5225  10.6576

          k = 0.2917 0.5052 0.0000 (  6293 PWs)   bands (ev):

   -15.5273 -13.3451 -11.7110  -2.9638  -0.3554   9.1105   9.6106  11.1588

          k = 0.2917 0.5533 0.0000 (  6302 PWs)   bands (ev):

   -14.8500 -13.8992 -12.0074  -2.3319  -0.9884   9.0602  10.6346  11.2985

          k = 0.3333 0.5774 0.0000 (  6336 PWs)   bands (ev):

   -14.2824 -14.2824 -12.2736  -1.6519  -1.6519   8.9739  11.2695  11.2698

     the Fermi energy is    -1.6220 ev

!    total energy              =     -36.88795788 Ry
     total all-electron energy =      -152.416152 Ry
     estimated scf accuracy    <          5.3E-10 Ry
     smearing contrib. (-TS)   =      -0.00002940 Ry
     internal energy E=F+TS    =     -36.88792848 Ry

     The total energy is F=E-TS. E is the sum of the following terms:
     one-electron contribution =    -154.31089953 Ry
     hartree contribution      =      78.79349761 Ry
     xc contribution           =      -9.28381069 Ry
     ewald contribution        =      60.24775952 Ry
     one-center paw contrib.   =     -12.33447538 Ry

     convergence has been achieved in   6 iterations

     Writing all to output data dir ./tmp/graphene.save/ :
     XML data file, charge density, pseudopotentials, collected wavefunctions

     init_run     :      3.27s CPU      3.53s WALL (       1 calls)
     electrons    :     41.54s CPU     43.73s WALL (       1 calls)

     Called by init_run:
     wfcinit      :      1.96s CPU      1.94s WALL (       1 calls)
     potinit      :      0.65s CPU      0.78s WALL (       1 calls)
     hinit0       :      0.48s CPU      0.49s WALL (       1 calls)

     Called by electrons:
     c_bands      :     34.43s CPU     35.04s WALL (       6 calls)
     sum_band     :      5.00s CPU      5.80s WALL (       6 calls)
     v_of_rho     :      1.12s CPU      1.59s WALL (       7 calls)
     newd         :      0.58s CPU      1.14s WALL (       7 calls)
     PAW_pot      :      0.46s CPU      0.45s WALL (       7 calls)
     mix_rho      :      0.12s CPU      0.11s WALL (       6 calls)

     Called by c_bands:
     init_us_2    :      0.82s CPU      0.80s WALL (     793 calls)
     cegterg      :     33.46s CPU     34.06s WALL (     366 calls)

     Called by *egterg:
     cdiaghg      :      0.23s CPU      0.22s WALL (    2213 calls)
     h_psi        :     25.41s CPU     24.70s WALL (    2274 calls)
     s_psi        :      1.71s CPU      1.67s WALL (    2274 calls)
     g_psi        :      0.16s CPU      0.16s WALL (    1847 calls)

     Called by h_psi:
     h_psi:calbec :      1.84s CPU      1.79s WALL (    2274 calls)
     vloc_psi     :     21.71s CPU     21.09s WALL (    2274 calls)
                                        0.00s GPU  (    2274 calls)
     add_vuspsi   :      1.73s CPU      1.68s WALL (    2274 calls)

     General routines
     calbec       :      2.34s CPU      2.28s WALL (    2640 calls)
     fft          :      0.87s CPU      0.85s WALL (      89 calls)
     ffts         :      0.42s CPU      0.40s WALL (      13 calls)
     fftw         :     21.50s CPU     20.86s WALL (   22768 calls)
     interpolate  :      0.47s CPU      0.45s WALL (       7 calls)

     Parallel routines

     PWSCF        :     44.92s CPU     47.49s WALL


   This run was terminated on:  12:54:59  11Apr2026            

=------------------------------------------------------------------------------=
   JOB DONE.
=------------------------------------------------------------------------------=
