
     Program PWSCF v.7.5 starts on 12Apr2026 at 22:55:14 

     This program is part of the open-source Quantum ESPRESSO suite
     for quantum simulation of materials; please cite
         "P. Giannozzi et al., J. Phys.:Condens. Matter 21 395502 (2009);
         "P. Giannozzi et al., J. Phys.:Condens. Matter 29 465901 (2017);
         "P. Giannozzi et al., J. Chem. Phys. 152 154105 (2020);
          URL http://www.quantum-espresso.org", 
     in publications or presentations arising from this work. More details at
     http://www.quantum-espresso.org/quote

     Parallel version (MPI), running on     1 processors

     MPI processes distributed on     1 nodes
     2426 MiB available memory on the printing compute node when the environment starts

     Waiting for input...
     Reading input from standard input

     Current dimensions of program PWSCF are:
     Max number of different atomic species (ntypx) = 10
     Max number of k-points (npk) =  40000
     Max angular momentum in pseudopotentials (lmaxx) =  4
     file C.pbe-n-kjpaw_psl.1.0.0.UPF: wavefunction(s)  2S 2P renormalized
     Message from routine setup:
     using ibrav=0 with symmetry is DISCOURAGED, use correct ibrav instead

     Subspace diagonalization in iterative solution of the eigenvalue problem:
     a serial algorithm will be used


     G-vector sticks info
     --------------------
     sticks:   dense  smooth     PW     G-vecs:    dense   smooth      PW
     Sum        1013     507    163               153849    54343   10207

     Using Slab Decomposition



     bravais-lattice index     =            0
     lattice parameter (alat)  =       4.9276  a.u.
     unit-cell volume          =     562.3342 (a.u.)^3
     number of atoms/cell      =            2
     number of atomic types    =            1
     number of electrons       =         8.00
     number of Kohn-Sham states=            8
     kinetic-energy cutoff     =      80.0000  Ry
     charge density cutoff     =     640.0000  Ry
     scf convergence threshold =      1.0E-08
     mixing beta               =       0.7000
     number of iterations used =            8  plain     mixing
     Exchange-correlation= SLA  PW   PBX  PBC
                           (   1   4   3   4   0   0   0)

     celldm(1)=   4.927650  celldm(2)=   0.000000  celldm(3)=   0.000000
     celldm(4)=   0.000000  celldm(5)=   0.000000  celldm(6)=   0.000000

     crystal axes: (cart. coord. in units of alat)
               a(1) = (   1.000000   0.000000   0.000000 )  
               a(2) = (  -0.471698   0.817005   0.000000 )  
               a(3) = (   0.000000   0.000000   5.752416 )  

     reciprocal axes: (cart. coord. in units 2 pi/alat)
               b(1) = (  1.000000  0.577350 -0.000000 )  
               b(2) = (  0.000000  1.223983  0.000000 )  
               b(3) = (  0.000000 -0.000000  0.173840 )  


     PseudoPot. # 1 for C  read from file:
     ./pseudo/C.pbe-n-kjpaw_psl.1.0.0.UPF
     MD5 check sum: 5f16ad9a65e90284d1d834d4ab3b0f7d
     Pseudo is Projector augmented-wave + core cor, Zval =  4.0
     Generated using &quot;atomic&quot; code by A. Dal Corso  v.6.3
     Shape of augmentation charge: PSQ
     Using radial grid of 1073 points,  4 beta functions with: 
                l(1) =   0
                l(2) =   0
                l(3) =   1
                l(4) =   1
     Q(r) pseudized with 0 coefficients 


     atomic species   valence    mass     pseudopotential
     C                 4.00    12.01100     C ( 1.00)

      4 Sym. Ops., with inversion, found ( 2 have fractional translation)



   Cartesian axes

     site n.     atom                  positions (alat units)
         1        C      tau(   1) = (   0.0000000   0.0000000   0.0000000  )
         2        C      tau(   2) = (   0.0188674   0.5446702   0.0000000  )

     number of k points=   290  Marzari-Vanderbilt smearing, width (Ry)=  0.0200

     Number of k-points >= 100: set verbosity='high' to print them.

     Dense  grid:   153849 G-vectors     FFT dimensions: (  45,  45, 240)

     Smooth grid:    54343 G-vectors     FFT dimensions: (  30,  27, 162)

     Estimated max dynamical RAM per process >     445.84 MB

     Initial potential from superposition of free atoms

     starting charge       7.9999, renormalised to       8.0000

     negative rho (up, down):  2.266E-05 0.000E+00
     Starting wfcs are    8 randomized atomic wfcs
     Checking if some PAW data can be deallocated... 

     total cpu time spent up to now is       11.7 secs

     Self-consistent Calculation

     iteration #  1     ecut=    80.00 Ry     beta= 0.70
     Davidson diagonalization with overlap
     ethr =  1.00E-02,  avg # of iterations =  5.4

     negative rho (up, down):  2.056E-05 0.000E+00

     total cpu time spent up to now is       53.1 secs

     total energy              =     -36.85319383 Ry
     estimated scf accuracy    <       0.15475984 Ry

     iteration #  2     ecut=    80.00 Ry     beta= 0.70
     Davidson diagonalization with overlap
     ethr =  1.93E-03,  avg # of iterations =  4.0

     negative rho (up, down):  2.556E-05 0.000E+00

     total cpu time spent up to now is       82.4 secs

     total energy              =     -36.87356657 Ry
     estimated scf accuracy    <       0.00186108 Ry

     iteration #  3     ecut=    80.00 Ry     beta= 0.70
     Davidson diagonalization with overlap
     c_bands:  1 eigenvalues not converged
     c_bands:  1 eigenvalues not converged
     c_bands:  1 eigenvalues not converged
     c_bands:  1 eigenvalues not converged
     c_bands:  2 eigenvalues not converged
     ethr =  2.33E-05,  avg # of iterations = 10.8

     negative rho (up, down):  3.002E-05 0.000E+00

     total cpu time spent up to now is      128.0 secs

     total energy              =     -36.87381000 Ry
     estimated scf accuracy    <       0.00014573 Ry

     iteration #  4     ecut=    80.00 Ry     beta= 0.70
     Davidson diagonalization with overlap
     c_bands:  1 eigenvalues not converged
     ethr =  1.82E-06,  avg # of iterations =  4.4

     negative rho (up, down):  3.033E-05 0.000E+00

     total cpu time spent up to now is      154.9 secs

     total energy              =     -36.87382151 Ry
     estimated scf accuracy    <       0.00000154 Ry

     iteration #  5     ecut=    80.00 Ry     beta= 0.70
     Davidson diagonalization with overlap
     ethr =  1.93E-08,  avg # of iterations =  2.8

     negative rho (up, down):  3.034E-05 0.000E+00

     total cpu time spent up to now is      180.0 secs

     total energy              =     -36.87382242 Ry
     estimated scf accuracy    <       0.00000004 Ry

     iteration #  6     ecut=    80.00 Ry     beta= 0.70
     Davidson diagonalization with overlap
     ethr =  4.78E-10,  avg # of iterations =  2.9

     negative rho (up, down):  3.033E-05 0.000E+00

     total cpu time spent up to now is      205.0 secs

     End of self-consistent calculation

     Number of k-points >= 100: set verbosity='high' to print the bands.

     the Fermi energy is    -2.1036 ev

!    total energy              =     -36.87382244 Ry
     total all-electron energy =      -152.402017 Ry
     estimated scf accuracy    <          1.8E-10 Ry
     smearing contrib. (-TS)   =       0.00007019 Ry
     internal energy E=F+TS    =     -36.87389262 Ry

     The total energy is F=E-TS. E is the sum of the following terms:
     one-electron contribution =    -148.44618757 Ry
     hartree contribution      =      75.76843527 Ry
     xc contribution           =      -9.15781226 Ry
     ewald contribution        =      57.29119035 Ry
     one-center paw contrib.   =     -12.32951840 Ry

     convergence has been achieved in   6 iterations

     Writing all to output data dir ./tmp/graphene_0p06.save/ :
     XML data file, charge density, pseudopotentials, collected wavefunctions

     init_run     :     10.66s CPU     11.65s WALL (       1 calls)
     electrons    :    190.07s CPU    193.29s WALL (       1 calls)

     Called by init_run:
     wfcinit      :      8.89s CPU      9.44s WALL (       1 calls)
     potinit      :      0.58s CPU      0.72s WALL (       1 calls)
     hinit0       :      0.86s CPU      0.94s WALL (       1 calls)

     Called by electrons:
     c_bands      :    167.41s CPU    168.77s WALL (       6 calls)
     sum_band     :     20.41s CPU     21.37s WALL (       6 calls)
     v_of_rho     :      1.27s CPU      1.70s WALL (       7 calls)
     newd         :      0.67s CPU      1.35s WALL (       7 calls)
     PAW_pot      :      0.44s CPU      0.45s WALL (       7 calls)
     mix_rho      :      0.14s CPU      0.14s WALL (       6 calls)

     Called by c_bands:
     init_us_2    :      4.26s CPU      4.32s WALL (    3770 calls)
     cegterg      :    162.44s CPU    163.73s WALL (    1740 calls)

     Called by *egterg:
     cdiaghg      :      1.03s CPU      1.06s WALL (   10511 calls)
     h_psi        :    121.94s CPU    123.39s WALL (   10801 calls)
     s_psi        :      8.60s CPU      8.67s WALL (   10801 calls)
     g_psi        :      0.81s CPU      0.81s WALL (    8771 calls)

     Called by h_psi:
     h_psi:calbec :      9.14s CPU      9.19s WALL (   10801 calls)
     vloc_psi     :    103.51s CPU    104.84s WALL (   10801 calls)
                                        0.00s GPU  (   10801 calls)
     add_vuspsi   :      8.64s CPU      8.72s WALL (   10801 calls)

     General routines
     calbec       :     11.62s CPU     11.72s WALL (   12541 calls)
     fft          :      1.28s CPU      1.32s WALL (      89 calls)
     ffts         :      0.26s CPU      0.27s WALL (      13 calls)
     fftw         :    100.61s CPU    101.67s WALL (  107540 calls)
     interpolate  :      0.33s CPU      0.33s WALL (       7 calls)

     Parallel routines

     PWSCF        :   3m20.95s CPU   3m25.94s WALL


   This run was terminated on:  22:58:40  12Apr2026            

=------------------------------------------------------------------------------=
   JOB DONE.
=------------------------------------------------------------------------------=
