
     Program PWSCF v.7.5 starts on 12Apr2026 at 23:39:44 

     This program is part of the open-source Quantum ESPRESSO suite
     for quantum simulation of materials; please cite
         "P. Giannozzi et al., J. Phys.:Condens. Matter 21 395502 (2009);
         "P. Giannozzi et al., J. Phys.:Condens. Matter 29 465901 (2017);
         "P. Giannozzi et al., J. Chem. Phys. 152 154105 (2020);
          URL http://www.quantum-espresso.org", 
     in publications or presentations arising from this work. More details at
     http://www.quantum-espresso.org/quote

     Parallel version (MPI), running on     1 processors

     MPI processes distributed on     1 nodes
     707 MiB available memory on the printing compute node when the environment starts

     Waiting for input...
     Reading input from standard input

     Current dimensions of program PWSCF are:
     Max number of different atomic species (ntypx) = 10
     Max number of k-points (npk) =  40000
     Max angular momentum in pseudopotentials (lmaxx) =  4
     file C.pbe-n-kjpaw_psl.1.0.0.UPF: wavefunction(s)  2S 2P renormalized
     Message from routine setup:
     using ibrav=0 with symmetry is DISCOURAGED, use correct ibrav instead

     Subspace diagonalization in iterative solution of the eigenvalue problem:
     a serial algorithm will be used


     G-vector sticks info
     --------------------
     sticks:   dense  smooth     PW     G-vecs:    dense   smooth      PW
     Sum        1061     533    173               162353    57357   10717

     Using Slab Decomposition



     bravais-lattice index     =            0
     lattice parameter (alat)  =       5.2066  a.u.
     unit-cell volume          =     594.1644 (a.u.)^3
     number of atoms/cell      =            2
     number of atomic types    =            1
     number of electrons       =         8.00
     number of Kohn-Sham states=            8
     kinetic-energy cutoff     =      80.0000  Ry
     charge density cutoff     =     640.0000  Ry
     scf convergence threshold =      1.0E-08
     mixing beta               =       0.7000
     number of iterations used =            8  plain     mixing
     Exchange-correlation= SLA  PW   PBX  PBC
                           (   1   4   3   4   0   0   0)

     celldm(1)=   5.206573  celldm(2)=   0.000000  celldm(3)=   0.000000
     celldm(4)=   0.000000  celldm(5)=   0.000000  celldm(6)=   0.000000

     crystal axes: (cart. coord. in units of alat)
               a(1) = (   1.000000   0.000000   0.000000 )  
               a(2) = (  -0.446429   0.773237   0.000000 )  
               a(3) = (   0.000000   0.000000   5.444251 )  

     reciprocal axes: (cart. coord. in units 2 pi/alat)
               b(1) = (  1.000000  0.577350 -0.000000 )  
               b(2) = (  0.000000  1.293265  0.000000 )  
               b(3) = (  0.000000 -0.000000  0.183680 )  


     PseudoPot. # 1 for C  read from file:
     ./pseudo/C.pbe-n-kjpaw_psl.1.0.0.UPF
     MD5 check sum: 5f16ad9a65e90284d1d834d4ab3b0f7d
     Pseudo is Projector augmented-wave + core cor, Zval =  4.0
     Generated using &quot;atomic&quot; code by A. Dal Corso  v.6.3
     Shape of augmentation charge: PSQ
     Using radial grid of 1073 points,  4 beta functions with: 
                l(1) =   0
                l(2) =   0
                l(3) =   1
                l(4) =   1
     Q(r) pseudized with 0 coefficients 


     atomic species   valence    mass     pseudopotential
     C                 4.00    12.01100     C ( 1.00)

      4 Sym. Ops., with inversion, found ( 2 have fractional translation)



   Cartesian axes

     site n.     atom                  positions (alat units)
         1        C      tau(   1) = (   0.0000000   0.0000000   0.0000000  )
         2        C      tau(   2) = (   0.0357138   0.5154915   0.0000000  )

     number of k points=   290  Marzari-Vanderbilt smearing, width (Ry)=  0.0200

     Number of k-points >= 100: set verbosity='high' to print them.

     Dense  grid:   162353 G-vectors     FFT dimensions: (  45,  45, 240)

     Smooth grid:    57357 G-vectors     FFT dimensions: (  30,  27, 162)

     Estimated max dynamical RAM per process >     468.90 MB

     Initial potential from superposition of free atoms

     starting charge       7.9999, renormalised to       8.0000

     negative rho (up, down):  2.324E-05 0.000E+00
     Starting wfcs are    8 randomized atomic wfcs
     Checking if some PAW data can be deallocated... 

     total cpu time spent up to now is       10.6 secs

     Self-consistent Calculation

     iteration #  1     ecut=    80.00 Ry     beta= 0.70
     Davidson diagonalization with overlap
     ethr =  1.00E-02,  avg # of iterations =  6.0

     negative rho (up, down):  2.070E-05 0.000E+00

     total cpu time spent up to now is       50.6 secs

     total energy              =     -36.81855589 Ry
     estimated scf accuracy    <       0.12809690 Ry

     iteration #  2     ecut=    80.00 Ry     beta= 0.70
     Davidson diagonalization with overlap
     ethr =  1.60E-03,  avg # of iterations =  3.7

     negative rho (up, down):  2.554E-05 0.000E+00

     total cpu time spent up to now is       77.9 secs

     total energy              =     -36.83513922 Ry
     estimated scf accuracy    <       0.00176242 Ry

     iteration #  3     ecut=    80.00 Ry     beta= 0.70
     Davidson diagonalization with overlap
     c_bands:  1 eigenvalues not converged
     c_bands:  1 eigenvalues not converged
     c_bands:  1 eigenvalues not converged
     c_bands:  1 eigenvalues not converged
     c_bands:  1 eigenvalues not converged
     c_bands:  1 eigenvalues not converged
     c_bands:  1 eigenvalues not converged
     c_bands:  1 eigenvalues not converged
     c_bands:  1 eigenvalues not converged
     c_bands:  1 eigenvalues not converged
     ethr =  2.20E-05,  avg # of iterations = 10.4

     negative rho (up, down):  2.946E-05 0.000E+00

     total cpu time spent up to now is      126.9 secs

     total energy              =     -36.83535341 Ry
     estimated scf accuracy    <       0.00014218 Ry

     iteration #  4     ecut=    80.00 Ry     beta= 0.70
     Davidson diagonalization with overlap
     c_bands:  1 eigenvalues not converged
     c_bands:  1 eigenvalues not converged
     c_bands:  1 eigenvalues not converged
     ethr =  1.78E-06,  avg # of iterations =  4.2

     negative rho (up, down):  2.965E-05 0.000E+00

     total cpu time spent up to now is      155.0 secs

     total energy              =     -36.83536424 Ry
     estimated scf accuracy    <       0.00000119 Ry

     iteration #  5     ecut=    80.00 Ry     beta= 0.70
     Davidson diagonalization with overlap
     ethr =  1.49E-08,  avg # of iterations =  3.0

     negative rho (up, down):  2.966E-05 0.000E+00

     total cpu time spent up to now is      183.5 secs

     total energy              =     -36.83536516 Ry
     estimated scf accuracy    <       0.00000003 Ry

     iteration #  6     ecut=    80.00 Ry     beta= 0.70
     Davidson diagonalization with overlap
     ethr =  3.71E-10,  avg # of iterations =  2.9

     negative rho (up, down):  2.964E-05 0.000E+00

     total cpu time spent up to now is      211.2 secs

     End of self-consistent calculation

     Number of k-points >= 100: set verbosity='high' to print the bands.

     the Fermi energy is    -2.3067 ev

!    total energy              =     -36.83536517 Ry
     total all-electron energy =      -152.363560 Ry
     estimated scf accuracy    <          6.9E-10 Ry
     smearing contrib. (-TS)   =       0.00007294 Ry
     internal energy E=F+TS    =     -36.83543811 Ry

     The total energy is F=E-TS. E is the sum of the following terms:
     one-electron contribution =    -140.36221077 Ry
     hartree contribution      =      71.66353038 Ry
     xc contribution           =      -9.04547490 Ry
     ewald contribution        =      53.23496924 Ry
     one-center paw contrib.   =     -12.32625207 Ry

     convergence has been achieved in   6 iterations

     Writing all to output data dir ./tmp/graphene_0p12.save/ :
     XML data file, charge density, pseudopotentials, collected wavefunctions

     init_run     :      9.78s CPU     10.49s WALL (       1 calls)
     electrons    :    197.72s CPU    200.68s WALL (       1 calls)

     Called by init_run:
     wfcinit      :      8.09s CPU      8.52s WALL (       1 calls)
     potinit      :      0.55s CPU      0.64s WALL (       1 calls)
     hinit0       :      0.80s CPU      0.84s WALL (       1 calls)

     Called by electrons:
     c_bands      :    175.81s CPU    176.90s WALL (       6 calls)
     sum_band     :     19.66s CPU     20.71s WALL (       6 calls)
     v_of_rho     :      1.28s CPU      1.62s WALL (       7 calls)
     newd         :      0.65s CPU      1.31s WALL (       7 calls)
     PAW_pot      :      0.43s CPU      0.43s WALL (       7 calls)
     mix_rho      :      0.13s CPU      0.14s WALL (       6 calls)

     Called by c_bands:
     init_us_2    :      4.31s CPU      4.36s WALL (    3770 calls)
     cegterg      :    170.82s CPU    171.86s WALL (    1740 calls)

     Called by *egterg:
     cdiaghg      :      1.00s CPU      1.01s WALL (   10477 calls)
     h_psi        :    128.81s CPU    129.99s WALL (   10767 calls)
     s_psi        :      8.58s CPU      8.64s WALL (   10767 calls)
     g_psi        :      0.81s CPU      0.82s WALL (    8737 calls)

     Called by h_psi:
     h_psi:calbec :      8.99s CPU      9.05s WALL (   10767 calls)
     vloc_psi     :    110.57s CPU    111.63s WALL (   10767 calls)
                                        0.00s GPU  (   10767 calls)
     add_vuspsi   :      8.48s CPU      8.55s WALL (   10767 calls)

     General routines
     calbec       :     11.52s CPU     11.62s WALL (   12507 calls)
     fft          :      1.22s CPU      1.23s WALL (      89 calls)
     ffts         :      0.26s CPU      0.26s WALL (      13 calls)
     fftw         :    104.16s CPU    105.02s WALL (  106814 calls)
     interpolate  :      0.32s CPU      0.32s WALL (       7 calls)

     Parallel routines

     PWSCF        :   3m27.77s CPU   3m32.13s WALL


   This run was terminated on:  23:43:16  12Apr2026            

=------------------------------------------------------------------------------=
   JOB DONE.
=------------------------------------------------------------------------------=
