
     Program PWSCF v.7.5 starts on 11Apr2026 at 12:23:51 

     This program is part of the open-source Quantum ESPRESSO suite
     for quantum simulation of materials; please cite
         "P. Giannozzi et al., J. Phys.:Condens. Matter 21 395502 (2009);
         "P. Giannozzi et al., J. Phys.:Condens. Matter 29 465901 (2017);
         "P. Giannozzi et al., J. Chem. Phys. 152 154105 (2020);
          URL http://www.quantum-espresso.org", 
     in publications or presentations arising from this work. More details at
     http://www.quantum-espresso.org/quote

     Parallel version (MPI), running on     1 processors

     MPI processes distributed on     1 nodes
     2418 MiB available memory on the printing compute node when the environment starts

     Waiting for input...
     Reading input from standard input

     Current dimensions of program PWSCF are:
     Max number of different atomic species (ntypx) = 10
     Max number of k-points (npk) =  40000
     Max angular momentum in pseudopotentials (lmaxx) =  4
     file C.pbe-n-kjpaw_psl.1.0.0.UPF: wavefunction(s)  2S 2P renormalized

     Subspace diagonalization in iterative solution of the eigenvalue problem:
     a serial algorithm will be used


     G-vector sticks info
     --------------------
     sticks:   dense  smooth     PW     G-vecs:    dense   smooth      PW
     Sum         595     301     91                70539    25049    4457

     Using Slab Decomposition



     bravais-lattice index     =            4
     lattice parameter (alat)  =       4.6500  a.u.
     unit-cell volume          =     522.4452 (a.u.)^3
     number of atoms/cell      =            2
     number of atomic types    =            1
     number of electrons       =         8.00
     number of Kohn-Sham states=            8
     kinetic-energy cutoff     =      50.0000  Ry
     charge density cutoff     =     400.0000  Ry
     scf convergence threshold =      1.0E-08
     mixing beta               =       0.7000
     number of iterations used =            8  plain     mixing
     Exchange-correlation= SLA  PW   PBX  PBC
                           (   1   4   3   4   0   0   0)

     celldm(1)=   4.650000  celldm(2)=   0.000000  celldm(3)=   6.000000
     celldm(4)=   0.000000  celldm(5)=   0.000000  celldm(6)=   0.000000

     crystal axes: (cart. coord. in units of alat)
               a(1) = (   1.000000   0.000000   0.000000 )  
               a(2) = (  -0.500000   0.866025   0.000000 )  
               a(3) = (   0.000000   0.000000   6.000000 )  

     reciprocal axes: (cart. coord. in units 2 pi/alat)
               b(1) = (  1.000000  0.577350 -0.000000 )  
               b(2) = (  0.000000  1.154701  0.000000 )  
               b(3) = (  0.000000 -0.000000  0.166667 )  


     PseudoPot. # 1 for C  read from file:
     ./pseudo/C.pbe-n-kjpaw_psl.1.0.0.UPF
     MD5 check sum: 5f16ad9a65e90284d1d834d4ab3b0f7d
     Pseudo is Projector augmented-wave + core cor, Zval =  4.0
     Generated using &quot;atomic&quot; code by A. Dal Corso  v.6.3
     Shape of augmentation charge: PSQ
     Using radial grid of 1073 points,  4 beta functions with: 
                l(1) =   0
                l(2) =   0
                l(3) =   1
                l(4) =   1
     Q(r) pseudized with 0 coefficients 


     atomic species   valence    mass     pseudopotential
     C                 4.00    12.01100     C ( 1.00)

     24 Sym. Ops., with inversion, found (12 have fractional translation)



   Cartesian axes

     site n.     atom                  positions (alat units)
         1        C      tau(   1) = (   0.0000000   0.0000000   0.0000000  )
         2        C      tau(   2) = (  -0.0000005   0.5773506   0.0000000  )

     number of k points=    37  Marzari-Vanderbilt smearing, width (Ry)=  0.0200
                       cart. coord. in units 2pi/alat
        k(    1) = (   0.0000000   0.0000000   0.0000000), wk =   0.0061728
        k(    2) = (   0.0000000   0.0641500   0.0000000), wk =   0.0370370
        k(    3) = (   0.0000000   0.1283001   0.0000000), wk =   0.0370370
        k(    4) = (   0.0000000   0.1924501   0.0000000), wk =   0.0370370
        k(    5) = (   0.0000000   0.2566001   0.0000000), wk =   0.0370370
        k(    6) = (   0.0000000   0.3207501   0.0000000), wk =   0.0370370
        k(    7) = (   0.0000000   0.3849002   0.0000000), wk =   0.0370370
        k(    8) = (   0.0000000   0.4490502   0.0000000), wk =   0.0370370
        k(    9) = (   0.0000000   0.5132002   0.0000000), wk =   0.0370370
        k(   10) = (   0.0000000  -0.5773503   0.0000000), wk =   0.0185185
        k(   11) = (   0.0555556   0.0962250   0.0000000), wk =   0.0370370
        k(   12) = (   0.0555556   0.1603751   0.0000000), wk =   0.0740741
        k(   13) = (   0.0555556   0.2245251   0.0000000), wk =   0.0740741
        k(   14) = (   0.0555556   0.2886751   0.0000000), wk =   0.0740741
        k(   15) = (   0.0555556   0.3528252   0.0000000), wk =   0.0740741
        k(   16) = (   0.0555556   0.4169752   0.0000000), wk =   0.0740741
        k(   17) = (   0.0555556   0.4811252   0.0000000), wk =   0.0740741
        k(   18) = (   0.0555556   0.5452753   0.0000000), wk =   0.0740741
        k(   19) = (   0.1111111   0.1924501   0.0000000), wk =   0.0370370
        k(   20) = (   0.1111111   0.2566001   0.0000000), wk =   0.0740741
        k(   21) = (   0.1111111   0.3207501   0.0000000), wk =   0.0740741
        k(   22) = (   0.1111111   0.3849002   0.0000000), wk =   0.0740741
        k(   23) = (   0.1111111   0.4490502   0.0000000), wk =   0.0740741
        k(   24) = (   0.1111111   0.5132002   0.0000000), wk =   0.0740741
        k(   25) = (   0.1111111   0.5773503   0.0000000), wk =   0.0370370
        k(   26) = (   0.1666667   0.2886751   0.0000000), wk =   0.0370370
        k(   27) = (   0.1666667   0.3528252   0.0000000), wk =   0.0740741
        k(   28) = (   0.1666667   0.4169752   0.0000000), wk =   0.0740741
        k(   29) = (   0.1666667   0.4811252   0.0000000), wk =   0.0740741
        k(   30) = (   0.1666667   0.5452753   0.0000000), wk =   0.0740741
        k(   31) = (   0.2222222   0.3849002   0.0000000), wk =   0.0370370
        k(   32) = (   0.2222222   0.4490502   0.0000000), wk =   0.0740741
        k(   33) = (   0.2222222   0.5132002   0.0000000), wk =   0.0740741
        k(   34) = (   0.2222222   0.5773503   0.0000000), wk =   0.0370370
        k(   35) = (   0.2777778   0.4811252   0.0000000), wk =   0.0370370
        k(   36) = (   0.2777778   0.5452753   0.0000000), wk =   0.0740741
        k(   37) = (   0.3333333   0.5773503   0.0000000), wk =   0.0123457

     Dense  grid:    70539 G-vectors     FFT dimensions: (  30,  30, 180)

     Smooth grid:    25049 G-vectors     FFT dimensions: (  24,  24, 125)

     Estimated max dynamical RAM per process >     104.23 MB

     Check: negative core charge=   -0.000003

     Initial potential from superposition of free atoms

     starting charge       7.9999, renormalised to       8.0000

     negative rho (up, down):  6.645E-05 0.000E+00
     Starting wfcs are    8 randomized atomic wfcs
     Checking if some PAW data can be deallocated... 

     total cpu time spent up to now is        1.8 secs

     Self-consistent Calculation

     iteration #  1     ecut=    50.00 Ry     beta= 0.70
     Davidson diagonalization with overlap
     ethr =  1.00E-02,  avg # of iterations =  5.4

     negative rho (up, down):  7.324E-05 0.000E+00

     total cpu time spent up to now is        5.9 secs

     total energy              =     -36.85841077 Ry
     estimated scf accuracy    <       0.19820871 Ry

     iteration #  2     ecut=    50.00 Ry     beta= 0.70
     Davidson diagonalization with overlap
     ethr =  2.48E-03,  avg # of iterations =  3.5

     negative rho (up, down):  8.165E-05 0.000E+00

     total cpu time spent up to now is        7.7 secs

     total energy              =     -36.88677881 Ry
     estimated scf accuracy    <       0.00209517 Ry

     iteration #  3     ecut=    50.00 Ry     beta= 0.70
     Davidson diagonalization with overlap
     ethr =  2.62E-05,  avg # of iterations = 10.1

     negative rho (up, down):  8.916E-05 0.000E+00

     total cpu time spent up to now is       10.6 secs

     total energy              =     -36.88703451 Ry
     estimated scf accuracy    <       0.00015839 Ry

     iteration #  4     ecut=    50.00 Ry     beta= 0.70
     Davidson diagonalization with overlap
     ethr =  1.98E-06,  avg # of iterations =  4.0

     negative rho (up, down):  8.962E-05 0.000E+00

     total cpu time spent up to now is       12.4 secs

     total energy              =     -36.88704479 Ry
     estimated scf accuracy    <       0.00000144 Ry

     iteration #  5     ecut=    50.00 Ry     beta= 0.70
     Davidson diagonalization with overlap
     ethr =  1.79E-08,  avg # of iterations =  2.9

     negative rho (up, down):  8.956E-05 0.000E+00

     total cpu time spent up to now is       14.1 secs

     total energy              =     -36.88704570 Ry
     estimated scf accuracy    <       0.00000003 Ry

     iteration #  6     ecut=    50.00 Ry     beta= 0.70
     Davidson diagonalization with overlap
     ethr =  3.35E-10,  avg # of iterations =  2.6

     negative rho (up, down):  8.953E-05 0.000E+00

     total cpu time spent up to now is       15.7 secs

     End of self-consistent calculation

          k = 0.0000 0.0000 0.0000 (  3111 PWs)   bands (ev):

   -21.2337  -9.3183  -4.7039  -4.7039   1.4948   2.3534   2.6612   4.6853

          k = 0.0000 0.0642 0.0000 (  3101 PWs)   bands (ev):

   -21.1605  -9.2306  -5.0023  -4.8614   1.5946   2.4540   2.7622   4.7849

          k = 0.0000 0.1283 0.0000 (  3111 PWs)   bands (ev):

   -20.9414  -8.9687  -5.8221  -5.2798   1.8942   2.7556   3.0652   5.0831

          k = 0.0000 0.1925 0.0000 (  3111 PWs)   bands (ev):

   -20.5773  -8.5356  -6.9998  -5.8427   2.3934   3.2572   3.5703   5.5774

          k = 0.0000 0.2566 0.0000 (  3115 PWs)   bands (ev):

   -20.0701  -8.3786  -7.9377  -6.4409   3.0914   3.9551   4.2770   6.1953

          k = 0.0000 0.3208 0.0000 (  3135 PWs)   bands (ev):

   -19.4230  -9.8438  -7.1868  -6.9981   3.9866   4.6882   5.0360   5.1834

          k = 0.0000 0.3849 0.0000 (  3139 PWs)   bands (ev):

   -18.6409 -11.3178  -7.4663  -6.3059   3.2838   5.0731   5.9815   6.1018

          k = 0.0000 0.4491 0.0000 (  3131 PWs)   bands (ev):

   -17.7331 -12.7458  -7.8166  -5.3470   1.8007   5.9203   6.4001   7.2682

          k = 0.0000 0.5132 0.0000 (  3131 PWs)   bands (ev):

   -16.7293 -14.0714  -8.0326  -4.4539   0.5736   5.8333   7.8512   8.7426

          k = 0.0000-0.5774 0.0000 (  3140 PWs)   bands (ev):

   -15.9647 -14.9447  -8.1055  -4.0262   0.0316   5.7975   9.4262   9.5657

          k = 0.0556 0.0962 0.0000 (  3117 PWs)   bands (ev):

   -21.0144  -9.0558  -5.5344  -5.1767   1.7944   2.6551   2.9642   4.9837

          k = 0.0556 0.1604 0.0000 (  3120 PWs)   bands (ev):

   -20.7227  -8.7082  -6.4802  -5.7212   2.1939   3.0568   3.3683   5.3804

          k = 0.0556 0.2245 0.0000 (  3114 PWs)   bands (ev):

   -20.2871  -8.1924  -7.7163  -6.3451   2.7927   3.6574   3.9745   5.9689

          k = 0.0556 0.2887 0.0000 (  3104 PWs)   bands (ev):

   -19.7100  -9.1120  -7.5169  -6.9498   3.5897   4.4456   4.7820   5.5561

          k = 0.0556 0.3528 0.0000 (  3126 PWs)   bands (ev):

   -18.9953 -10.5664  -7.4779  -6.6980   4.0010   4.5826   5.4837   5.7869

          k = 0.0556 0.4170 0.0000 (  3133 PWs)   bands (ev):

   -18.1497 -12.0095  -7.8955  -5.7689   2.4930   5.7587   6.3696   6.6673

          k = 0.0556 0.4811 0.0000 (  3145 PWs)   bands (ev):

   -17.1886 -13.3871  -8.1828  -4.8132   1.1166   6.2019   7.1709   8.0457

          k = 0.0556 0.5453 0.0000 (  3138 PWs)   bands (ev):

   -16.1915 -14.5974  -8.3290  -4.0778   0.1619   6.1349   8.7212   9.5895

          k = 0.1111 0.1925 0.0000 (  3113 PWs)   bands (ev):

   -20.3596  -8.2776  -7.3819  -6.4305   2.6932   3.5579   3.8737   5.8746

          k = 0.1111 0.2566 0.0000 (  3124 PWs)   bands (ev):

   -19.8540  -8.5216  -7.6832  -7.1758   3.3914   4.2563   4.5810   5.9496

          k = 0.1111 0.3208 0.0000 (  3125 PWs)   bands (ev):

   -19.2092  -9.8388  -7.8201  -6.9365   4.2870   4.5408   5.1732   5.4895

          k = 0.1111 0.3849 0.0000 (  3124 PWs)   bands (ev):

   -18.4305 -11.2284  -8.3322  -6.0593   3.0979   5.3770   6.2535   6.5955

          k = 0.1111 0.4491 0.0000 (  3126 PWs)   bands (ev):

   -17.5280 -12.6074  -8.7038  -5.1011   1.6860   6.6472   7.2014   7.5273

          k = 0.1111 0.5132 0.0000 (  3122 PWs)   bands (ev):

   -16.5320 -13.9033  -8.9292  -4.1989   0.4935   7.0693   8.1404   8.9588

          k = 0.1111 0.5774 0.0000 (  3122 PWs)   bands (ev):

   -15.7770 -14.7604  -9.0047  -3.7585  -0.0467   7.0359   9.6859   9.8425

          k = 0.1667 0.2887 0.0000 (  3091 PWs)   bands (ev):

   -19.2807  -9.4423  -8.1017  -7.0165   4.1883   4.7634   5.0515   5.3893

          k = 0.1667 0.3528 0.0000 (  3112 PWs)   bands (ev):

   -18.5718 -10.5570  -8.8686  -6.2071   3.4701   5.1809   6.0373   6.3986

          k = 0.1667 0.4170 0.0000 (  3117 PWs)   bands (ev):

   -17.7349 -11.8160  -9.4029  -5.2850   2.1398   6.3650   7.2007   7.6056

          k = 0.1667 0.4811 0.0000 (  3115 PWs)   bands (ev):

   -16.7868 -13.0962  -9.7405  -4.3230   0.8808   7.7272   8.4501   8.5001

          k = 0.1667 0.5453 0.0000 (  3116 PWs)   bands (ev):

   -15.8090 -14.2528  -9.9055  -3.5546  -0.0445   8.3584   9.2785   9.7131

          k = 0.2222 0.3849 0.0000 (  3115 PWs)   bands (ev):

   -17.8043 -11.3567  -9.8427  -5.3480   2.3178   6.2673   7.0871   7.5073

          k = 0.2222 0.4491 0.0000 (  3111 PWs)   bands (ev):

   -16.9188 -12.3602 -10.5033  -4.3978   1.1444   7.5380   8.2471   8.8124

          k = 0.2222 0.5132 0.0000 (  3109 PWs)   bands (ev):

   -15.9481 -13.4786 -10.8442  -3.4634   0.0684   8.9695   9.2172   9.9079

          k = 0.2222 0.5774 0.0000 (  3116 PWs)   bands (ev):

   -15.2148 -14.2734 -10.9487  -2.9608  -0.4832   9.4941   9.8420  10.4121

          k = 0.2778 0.4811 0.0000 (  3101 PWs)   bands (ev):

   -16.0032 -12.9882 -11.3883  -3.4409   0.1324   8.8758   9.0220  10.2073

          k = 0.2778 0.5453 0.0000 (  3104 PWs)   bands (ev):

   -15.0640 -13.8059 -11.8209  -2.5594  -0.7717   9.1178  10.3004  11.1678

          k = 0.3333 0.5774 0.0000 (  3135 PWs)   bands (ev):

   -14.2820 -14.2820 -12.2718  -1.6514  -1.6514   8.9740  11.2640  11.2642

     the Fermi energy is    -1.6136 ev

!    total energy              =     -36.88704571 Ry
     total all-electron energy =      -152.415240 Ry
     estimated scf accuracy    <          4.3E-10 Ry
     smearing contrib. (-TS)   =      -0.00008030 Ry
     internal energy E=F+TS    =     -36.88696541 Ry

     The total energy is F=E-TS. E is the sum of the following terms:
     one-electron contribution =    -154.31049168 Ry
     hartree contribution      =      78.79323432 Ry
     xc contribution           =      -9.28333548 Ry
     ewald contribution        =      60.24775952 Ry
     one-center paw contrib.   =     -12.33413208 Ry

     convergence has been achieved in   6 iterations

     Writing all to output data dir ./tmp/graphene.save/ :
     XML data file, charge density, pseudopotentials, collected wavefunctions

     init_run     :      1.56s CPU      1.72s WALL (       1 calls)
     electrons    :     11.99s CPU     13.96s WALL (       1 calls)

     Called by init_run:
     wfcinit      :      0.52s CPU      0.52s WALL (       1 calls)
     potinit      :      0.30s CPU      0.40s WALL (       1 calls)
     hinit0       :      0.66s CPU      0.65s WALL (       1 calls)

     Called by electrons:
     c_bands      :      9.35s CPU     10.76s WALL (       6 calls)
     sum_band     :      1.53s CPU      1.79s WALL (       6 calls)
     v_of_rho     :      0.43s CPU      0.57s WALL (       7 calls)
     newd         :      0.29s CPU      0.58s WALL (       7 calls)
     PAW_pot      :      0.44s CPU      0.46s WALL (       7 calls)
     mix_rho      :      0.04s CPU      0.04s WALL (       6 calls)

     Called by c_bands:
     init_us_2    :      0.23s CPU      1.89s WALL (     481 calls)
     cegterg      :      9.08s CPU      8.82s WALL (     222 calls)

     Called by *egterg:
     cdiaghg      :      0.12s CPU      0.12s WALL (    1277 calls)
     h_psi        :      6.76s CPU      6.58s WALL (    1314 calls)
     s_psi        :      0.49s CPU      0.47s WALL (    1314 calls)
     g_psi        :      0.05s CPU      0.05s WALL (    1055 calls)

     Called by h_psi:
     h_psi:calbec :      0.51s CPU      0.50s WALL (    1314 calls)
     vloc_psi     :      5.71s CPU      5.57s WALL (    1314 calls)
                                        0.00s GPU  (    1314 calls)
     add_vuspsi   :      0.49s CPU      0.48s WALL (    1314 calls)

     General routines
     calbec       :      0.66s CPU      0.64s WALL (    1536 calls)
     fft          :      0.69s CPU      0.67s WALL (      89 calls)
     ffts         :      0.19s CPU      0.19s WALL (      13 calls)
     fftw         :      5.56s CPU      5.42s WALL (   13478 calls)
     interpolate  :      0.20s CPU      0.20s WALL (       7 calls)

     Parallel routines

     PWSCF        :     13.62s CPU     15.78s WALL


   This run was terminated on:  12:24: 7  11Apr2026            

=------------------------------------------------------------------------------=
   JOB DONE.
=------------------------------------------------------------------------------=
