
     Program PWSCF v.7.5 starts on 12Apr2026 at 23:11: 8 

     This program is part of the open-source Quantum ESPRESSO suite
     for quantum simulation of materials; please cite
         "P. Giannozzi et al., J. Phys.:Condens. Matter 21 395502 (2009);
         "P. Giannozzi et al., J. Phys.:Condens. Matter 29 465901 (2017);
         "P. Giannozzi et al., J. Chem. Phys. 152 154105 (2020);
          URL http://www.quantum-espresso.org", 
     in publications or presentations arising from this work. More details at
     http://www.quantum-espresso.org/quote

     Parallel version (MPI), running on     1 processors

     MPI processes distributed on     1 nodes
     1853 MiB available memory on the printing compute node when the environment starts

     Waiting for input...
     Reading input from standard input

     Current dimensions of program PWSCF are:
     Max number of different atomic species (ntypx) = 10
     Max number of k-points (npk) =  40000
     Max angular momentum in pseudopotentials (lmaxx) =  4
     file C.pbe-n-kjpaw_psl.1.0.0.UPF: wavefunction(s)  2S 2P renormalized
     Message from routine setup:
     using ibrav=0 with symmetry is DISCOURAGED, use correct ibrav instead

     Subspace diagonalization in iterative solution of the eigenvalue problem:
     a serial algorithm will be used


     G-vector sticks info
     --------------------
     sticks:   dense  smooth     PW     G-vecs:    dense   smooth      PW
     Sum        1033     513    169               156757    55349   10389

     Using Slab Decomposition



     bravais-lattice index     =            0
     lattice parameter (alat)  =       5.0206  a.u.
     unit-cell volume          =     572.9442 (a.u.)^3
     number of atoms/cell      =            2
     number of atomic types    =            1
     number of electrons       =         8.00
     number of Kohn-Sham states=            8
     kinetic-energy cutoff     =      80.0000  Ry
     charge density cutoff     =     640.0000  Ry
     scf convergence threshold =      1.0E-08
     mixing beta               =       0.7000
     number of iterations used =            8  plain     mixing
     Exchange-correlation= SLA  PW   PBX  PBC
                           (   1   4   3   4   0   0   0)

     celldm(1)=   5.020624  celldm(2)=   0.000000  celldm(3)=   0.000000
     celldm(4)=   0.000000  celldm(5)=   0.000000  celldm(6)=   0.000000

     crystal axes: (cart. coord. in units of alat)
               a(1) = (   1.000000   0.000000   0.000000 )  
               a(2) = (  -0.462963   0.801875   0.000000 )  
               a(3) = (   0.000000   0.000000   5.645890 )  

     reciprocal axes: (cart. coord. in units 2 pi/alat)
               b(1) = (  1.000000  0.577350 -0.000000 )  
               b(2) = (  0.000000  1.247077  0.000000 )  
               b(3) = (  0.000000 -0.000000  0.177120 )  


     PseudoPot. # 1 for C  read from file:
     ./pseudo/C.pbe-n-kjpaw_psl.1.0.0.UPF
     MD5 check sum: 5f16ad9a65e90284d1d834d4ab3b0f7d
     Pseudo is Projector augmented-wave + core cor, Zval =  4.0
     Generated using &quot;atomic&quot; code by A. Dal Corso  v.6.3
     Shape of augmentation charge: PSQ
     Using radial grid of 1073 points,  4 beta functions with: 
                l(1) =   0
                l(2) =   0
                l(3) =   1
                l(4) =   1
     Q(r) pseudized with 0 coefficients 


     atomic species   valence    mass     pseudopotential
     C                 4.00    12.01100     C ( 1.00)

      4 Sym. Ops., with inversion, found ( 2 have fractional translation)



   Cartesian axes

     site n.     atom                  positions (alat units)
         1        C      tau(   1) = (   0.0000000   0.0000000   0.0000000  )
         2        C      tau(   2) = (   0.0246909   0.5345837   0.0000000  )

     number of k points=   290  Marzari-Vanderbilt smearing, width (Ry)=  0.0200

     Number of k-points >= 100: set verbosity='high' to print them.

     Dense  grid:   156757 G-vectors     FFT dimensions: (  45,  45, 240)

     Smooth grid:    55349 G-vectors     FFT dimensions: (  30,  27, 162)

     Estimated max dynamical RAM per process >     453.61 MB

     Initial potential from superposition of free atoms

     starting charge       7.9999, renormalised to       8.0000

     negative rho (up, down):  2.287E-05 0.000E+00
     Starting wfcs are    8 randomized atomic wfcs
     Checking if some PAW data can be deallocated... 

     total cpu time spent up to now is       10.3 secs

     Self-consistent Calculation

     iteration #  1     ecut=    80.00 Ry     beta= 0.70
     Davidson diagonalization with overlap
     ethr =  1.00E-02,  avg # of iterations =  5.6

     negative rho (up, down):  2.062E-05 0.000E+00

     total cpu time spent up to now is       44.7 secs

     total energy              =     -36.84414152 Ry
     estimated scf accuracy    <       0.14447765 Ry

     iteration #  2     ecut=    80.00 Ry     beta= 0.70
     Davidson diagonalization with overlap
     ethr =  1.81E-03,  avg # of iterations =  3.8

     negative rho (up, down):  2.565E-05 0.000E+00

     total cpu time spent up to now is       68.9 secs

     total energy              =     -36.86296398 Ry
     estimated scf accuracy    <       0.00182688 Ry

     iteration #  3     ecut=    80.00 Ry     beta= 0.70
     Davidson diagonalization with overlap
     c_bands:  1 eigenvalues not converged
     c_bands:  1 eigenvalues not converged
     c_bands:  1 eigenvalues not converged
     c_bands:  1 eigenvalues not converged
     c_bands:  2 eigenvalues not converged
     c_bands:  1 eigenvalues not converged
     c_bands:  1 eigenvalues not converged
     c_bands:  1 eigenvalues not converged
     ethr =  2.28E-05,  avg # of iterations = 10.6

     negative rho (up, down):  2.991E-05 0.000E+00

     total cpu time spent up to now is      115.1 secs

     total energy              =     -36.86319590 Ry
     estimated scf accuracy    <       0.00014401 Ry

     iteration #  4     ecut=    80.00 Ry     beta= 0.70
     Davidson diagonalization with overlap
     c_bands:  1 eigenvalues not converged
     c_bands:  1 eigenvalues not converged
     ethr =  1.80E-06,  avg # of iterations =  4.2

     negative rho (up, down):  3.017E-05 0.000E+00

     total cpu time spent up to now is      140.4 secs

     total energy              =     -36.86320724 Ry
     estimated scf accuracy    <       0.00000139 Ry

     iteration #  5     ecut=    80.00 Ry     beta= 0.70
     Davidson diagonalization with overlap
     ethr =  1.74E-08,  avg # of iterations =  2.8

     negative rho (up, down):  3.018E-05 0.000E+00

     total cpu time spent up to now is      165.3 secs

     total energy              =     -36.86320814 Ry
     estimated scf accuracy    <       0.00000003 Ry

     iteration #  6     ecut=    80.00 Ry     beta= 0.70
     Davidson diagonalization with overlap
     ethr =  4.13E-10,  avg # of iterations =  2.9

     negative rho (up, down):  3.017E-05 0.000E+00

     total cpu time spent up to now is      190.2 secs

     End of self-consistent calculation

     Number of k-points >= 100: set verbosity='high' to print the bands.

     the Fermi energy is    -2.0875 ev

!    total energy              =     -36.86320816 Ry
     total all-electron energy =      -152.391403 Ry
     estimated scf accuracy    <          1.6E-10 Ry
     smearing contrib. (-TS)   =       0.00002658 Ry
     internal energy E=F+TS    =     -36.86323474 Ry

     The total energy is F=E-TS. E is the sum of the following terms:
     one-electron contribution =    -145.64479468 Ry
     hartree contribution      =      74.34494666 Ry
     xc contribution           =      -9.11882701 Ry
     ewald contribution        =      55.88368748 Ry
     one-center paw contrib.   =     -12.32824719 Ry

     convergence has been achieved in   6 iterations

     Writing all to output data dir ./tmp/graphene_0p08.save/ :
     XML data file, charge density, pseudopotentials, collected wavefunctions

     init_run     :      9.56s CPU     10.21s WALL (       1 calls)
     electrons    :    176.94s CPU    179.92s WALL (       1 calls)

     Called by init_run:
     wfcinit      :      7.88s CPU      8.22s WALL (       1 calls)
     potinit      :      0.57s CPU      0.66s WALL (       1 calls)
     hinit0       :      0.79s CPU      0.83s WALL (       1 calls)

     Called by electrons:
     c_bands      :    154.97s CPU    156.10s WALL (       6 calls)
     sum_band     :     19.79s CPU     20.77s WALL (       6 calls)
     v_of_rho     :      1.22s CPU      1.63s WALL (       7 calls)
     newd         :      0.63s CPU      1.30s WALL (       7 calls)
     PAW_pot      :      0.44s CPU      0.44s WALL (       7 calls)
     mix_rho      :      0.13s CPU      0.13s WALL (       6 calls)

     Called by c_bands:
     init_us_2    :      4.17s CPU      4.21s WALL (    3770 calls)
     cegterg      :    150.17s CPU    151.23s WALL (    1740 calls)

     Called by *egterg:
     cdiaghg      :      0.97s CPU      0.98s WALL (   10425 calls)
     h_psi        :    110.97s CPU    112.03s WALL (   10715 calls)
     s_psi        :      8.12s CPU      8.18s WALL (   10715 calls)
     g_psi        :      0.78s CPU      0.79s WALL (    8685 calls)

     Called by h_psi:
     h_psi:calbec :      8.66s CPU      8.71s WALL (   10715 calls)
     vloc_psi     :     93.50s CPU     94.46s WALL (   10715 calls)
                                        0.00s GPU  (   10715 calls)
     add_vuspsi   :      8.19s CPU      8.25s WALL (   10715 calls)

     General routines
     calbec       :     11.11s CPU     11.20s WALL (   12455 calls)
     fft          :      1.23s CPU      1.24s WALL (      89 calls)
     ffts         :      0.26s CPU      0.26s WALL (      13 calls)
     fftw         :     91.88s CPU     92.67s WALL (  107060 calls)
     interpolate  :      0.32s CPU      0.32s WALL (       7 calls)

     Parallel routines

     PWSCF        :   3m 6.71s CPU   3m11.02s WALL


   This run was terminated on:  23:14:19  12Apr2026            

=------------------------------------------------------------------------------=
   JOB DONE.
=------------------------------------------------------------------------------=
