
     Program PWSCF v.7.5 starts on 12Apr2026 at 23:56:35 

     This program is part of the open-source Quantum ESPRESSO suite
     for quantum simulation of materials; please cite
         "P. Giannozzi et al., J. Phys.:Condens. Matter 21 395502 (2009);
         "P. Giannozzi et al., J. Phys.:Condens. Matter 29 465901 (2017);
         "P. Giannozzi et al., J. Chem. Phys. 152 154105 (2020);
          URL http://www.quantum-espresso.org", 
     in publications or presentations arising from this work. More details at
     http://www.quantum-espresso.org/quote

     Parallel version (MPI), running on     1 processors

     MPI processes distributed on     1 nodes
     380 MiB available memory on the printing compute node when the environment starts

     Waiting for input...
     Reading input from standard input

     Current dimensions of program PWSCF are:
     Max number of different atomic species (ntypx) = 10
     Max number of k-points (npk) =  40000
     Max angular momentum in pseudopotentials (lmaxx) =  4
     file C.pbe-n-kjpaw_psl.1.0.0.UPF: wavefunction(s)  2S 2P renormalized
     Message from routine setup:
     using ibrav=0 with symmetry is DISCOURAGED, use correct ibrav instead

     Subspace diagonalization in iterative solution of the eigenvalue problem:
     a serial algorithm will be used


     G-vector sticks info
     --------------------
     sticks:   dense  smooth     PW     G-vecs:    dense   smooth      PW
     Sum        1089     547    177               165417    58443   10881

     Using Slab Decomposition



     bravais-lattice index     =            0
     lattice parameter (alat)  =       5.2995  a.u.
     unit-cell volume          =     604.7745 (a.u.)^3
     number of atoms/cell      =            2
     number of atomic types    =            1
     number of electrons       =         8.00
     number of Kohn-Sham states=            8
     kinetic-energy cutoff     =      80.0000  Ry
     charge density cutoff     =     640.0000  Ry
     scf convergence threshold =      1.0E-08
     mixing beta               =       0.7000
     number of iterations used =            8  plain     mixing
     Exchange-correlation= SLA  PW   PBX  PBC
                           (   1   4   3   4   0   0   0)

     celldm(1)=   5.299548  celldm(2)=   0.000000  celldm(3)=   0.000000
     celldm(4)=   0.000000  celldm(5)=   0.000000  celldm(6)=   0.000000

     crystal axes: (cart. coord. in units of alat)
               a(1) = (   1.000000   0.000000   0.000000 )  
               a(2) = (  -0.438596   0.759671   0.000000 )  
               a(3) = (   0.000000   0.000000   5.348738 )  

     reciprocal axes: (cart. coord. in units 2 pi/alat)
               b(1) = (  1.000000  0.577350 -0.000000 )  
               b(2) = (  0.000000  1.316359  0.000000 )  
               b(3) = (  0.000000 -0.000000  0.186960 )  


     PseudoPot. # 1 for C  read from file:
     ./pseudo/C.pbe-n-kjpaw_psl.1.0.0.UPF
     MD5 check sum: 5f16ad9a65e90284d1d834d4ab3b0f7d
     Pseudo is Projector augmented-wave + core cor, Zval =  4.0
     Generated using &quot;atomic&quot; code by A. Dal Corso  v.6.3
     Shape of augmentation charge: PSQ
     Using radial grid of 1073 points,  4 beta functions with: 
                l(1) =   0
                l(2) =   0
                l(3) =   1
                l(4) =   1
     Q(r) pseudized with 0 coefficients 


     atomic species   valence    mass     pseudopotential
     C                 4.00    12.01100     C ( 1.00)

      4 Sym. Ops., with inversion, found ( 2 have fractional translation)



   Cartesian axes

     site n.     atom                  positions (alat units)
         1        C      tau(   1) = (   0.0000000   0.0000000   0.0000000  )
         2        C      tau(   2) = (   0.0409352   0.5064477   0.0000000  )

     number of k points=   290  Marzari-Vanderbilt smearing, width (Ry)=  0.0200

     Number of k-points >= 100: set verbosity='high' to print them.

     Dense  grid:   165417 G-vectors     FFT dimensions: (  45,  45, 240)

     Smooth grid:    58443 G-vectors     FFT dimensions: (  36,  27, 162)

     Estimated max dynamical RAM per process >     476.88 MB

     Initial potential from superposition of free atoms

     starting charge       7.9999, renormalised to       8.0000

     negative rho (up, down):  2.361E-05 0.000E+00
     Starting wfcs are    8 randomized atomic wfcs
     Checking if some PAW data can be deallocated... 

     total cpu time spent up to now is       11.3 secs

     Self-consistent Calculation

     iteration #  1     ecut=    80.00 Ry     beta= 0.70
     Davidson diagonalization with overlap
     ethr =  1.00E-02,  avg # of iterations =  6.1

     negative rho (up, down):  2.072E-05 0.000E+00

     total cpu time spent up to now is       50.2 secs

     total energy              =     -36.80282445 Ry
     estimated scf accuracy    <       0.12146073 Ry

     iteration #  2     ecut=    80.00 Ry     beta= 0.70
     Davidson diagonalization with overlap
     ethr =  1.52E-03,  avg # of iterations =  3.8

     negative rho (up, down):  2.562E-05 0.000E+00

     total cpu time spent up to now is       77.4 secs

     total energy              =     -36.81851596 Ry
     estimated scf accuracy    <       0.00172624 Ry

     iteration #  3     ecut=    80.00 Ry     beta= 0.70
     Davidson diagonalization with overlap
     c_bands:  1 eigenvalues not converged
     c_bands:  2 eigenvalues not converged
     c_bands:  1 eigenvalues not converged
     c_bands:  1 eigenvalues not converged
     c_bands:  1 eigenvalues not converged
     c_bands:  1 eigenvalues not converged
     c_bands:  1 eigenvalues not converged
     c_bands:  1 eigenvalues not converged
     c_bands:  1 eigenvalues not converged
     c_bands:  1 eigenvalues not converged
     ethr =  2.16E-05,  avg # of iterations = 10.5

     negative rho (up, down):  2.953E-05 0.000E+00

     total cpu time spent up to now is      126.2 secs

     total energy              =     -36.81872972 Ry
     estimated scf accuracy    <       0.00014150 Ry

     iteration #  4     ecut=    80.00 Ry     beta= 0.70
     Davidson diagonalization with overlap
     c_bands:  1 eigenvalues not converged
     c_bands:  1 eigenvalues not converged
     c_bands:  1 eigenvalues not converged
     c_bands:  1 eigenvalues not converged
     ethr =  1.77E-06,  avg # of iterations =  4.0

     negative rho (up, down):  2.972E-05 0.000E+00

     total cpu time spent up to now is      153.9 secs

     total energy              =     -36.81874043 Ry
     estimated scf accuracy    <       0.00000120 Ry

     iteration #  5     ecut=    80.00 Ry     beta= 0.70
     Davidson diagonalization with overlap
     ethr =  1.51E-08,  avg # of iterations =  3.0

     negative rho (up, down):  2.973E-05 0.000E+00

     total cpu time spent up to now is      182.3 secs

     total energy              =     -36.81874135 Ry
     estimated scf accuracy    <       0.00000003 Ry

     iteration #  6     ecut=    80.00 Ry     beta= 0.70
     Davidson diagonalization with overlap
     ethr =  3.90E-10,  avg # of iterations =  2.9

     negative rho (up, down):  2.972E-05 0.000E+00

     total cpu time spent up to now is      210.6 secs

     End of self-consistent calculation

     Number of k-points >= 100: set verbosity='high' to print the bands.

     the Fermi energy is    -2.4121 ev

!    total energy              =     -36.81874137 Ry
     total all-electron energy =      -152.346936 Ry
     estimated scf accuracy    <          1.2E-09 Ry
     smearing contrib. (-TS)   =       0.00008083 Ry
     internal energy E=F+TS    =     -36.81882220 Ry

     The total energy is F=E-TS. E is the sum of the following terms:
     one-electron contribution =    -137.86964134 Ry
     hartree contribution      =      70.39969221 Ry
     xc contribution           =      -9.01096538 Ry
     ewald contribution        =      51.98760509 Ry
     one-center paw contrib.   =     -12.32551279 Ry

     convergence has been achieved in   6 iterations

     Writing all to output data dir ./tmp/graphene_0p14.save/ :
     XML data file, charge density, pseudopotentials, collected wavefunctions

     init_run     :     10.49s CPU     11.26s WALL (       1 calls)
     electrons    :    195.77s CPU    199.30s WALL (       1 calls)

     Called by init_run:
     wfcinit      :      8.79s CPU      9.22s WALL (       1 calls)
     potinit      :      0.56s CPU      0.68s WALL (       1 calls)
     hinit0       :      0.80s CPU      0.85s WALL (       1 calls)

     Called by electrons:
     c_bands      :    170.41s CPU    171.70s WALL (       6 calls)
     sum_band     :     23.03s CPU     24.41s WALL (       6 calls)
     v_of_rho     :      1.28s CPU      1.70s WALL (       7 calls)
     newd         :      0.71s CPU      1.37s WALL (       7 calls)
     PAW_pot      :      0.43s CPU      0.43s WALL (       7 calls)
     mix_rho      :      0.13s CPU      0.14s WALL (       6 calls)

     Called by c_bands:
     init_us_2    :      4.38s CPU      4.43s WALL (    3770 calls)
     cegterg      :    165.34s CPU    166.56s WALL (    1740 calls)

     Called by *egterg:
     cdiaghg      :      0.97s CPU      0.98s WALL (   10522 calls)
     h_psi        :    125.04s CPU    126.36s WALL (   10812 calls)
     s_psi        :      8.50s CPU      8.58s WALL (   10812 calls)
     g_psi        :      0.82s CPU      0.83s WALL (    8782 calls)

     Called by h_psi:
     h_psi:calbec :      9.38s CPU      9.44s WALL (   10812 calls)
     vloc_psi     :    106.42s CPU    107.59s WALL (   10812 calls)
                                        0.00s GPU  (   10812 calls)
     add_vuspsi   :      8.59s CPU      8.68s WALL (   10812 calls)

     General routines
     calbec       :     12.03s CPU     12.13s WALL (   12552 calls)
     fft          :      1.24s CPU      1.26s WALL (      89 calls)
     ffts         :      0.31s CPU      0.31s WALL (      13 calls)
     fftw         :    103.33s CPU    104.27s WALL (  106596 calls)
     interpolate  :      0.37s CPU      0.37s WALL (       7 calls)

     Parallel routines

     PWSCF        :   3m26.48s CPU   3m31.62s WALL


   This run was terminated on:   0: 0: 7  13Apr2026            

=------------------------------------------------------------------------------=
   JOB DONE.
=------------------------------------------------------------------------------=
